+ 0 0 1 tcp 40 ------- 0 0.0 4.0 0 0
- 0 0 1 tcp 40 ------- 0 0.0 4.0 0 0
r 0.050107 0 1 tcp 40 ------- 0 0.0 4.0 0 0
+ 0.050107 1 2 tcp 40 ------- 0 0.0 4.0 0 0
- 0.050107 1 2 tcp 40 ------- 0 0.0 4.0 0 0
r 0.608278 1 2 tcp 40 ------- 0 0.0 4.0 0 0
+ 0.608278 2 3 tcp 40 ------- 0 0.0 4.0 0 0
- 0.608278 2 3 tcp 40 ------- 0 0.0 4.0 0 0
r 1.166449 2 3 tcp 40 ------- 0 0.0 4.0 0 0
+ 1.166449 3 4 tcp 40 ------- 0 0.0 4.0 0 0
- 1.166449 3 4 tcp 40 ------- 0 0.0 4.0 0 0
r 1.176556 3 4 tcp 40 ------- 0 0.0 4.0 0 0
+ 1.176556 4 3 ack 40 ------- 0 4.0 0.0 0 1
- 1.176556 4 3 ack 40 ------- 0 4.0 0.0 0 1
r 1.186662 4 3 ack 40 ------- 0 4.0 0.0 0 1
+ 1.186662 3 2 ack 40 ------- 0 4.0 0.0 0 1
- 1.186662 3 2 ack 40 ------- 0 4.0 0.0 0 1
r 1.744834 3 2 ack 40 ------- 0 4.0 0.0 0 1
+ 1.744834 2 1 ack 40 ------- 0 4.0 0.0 0 1
- 1.744834 2 1 ack 40 ------- 0 4.0 0.0 0 1
r 2.303005 2 1 ack 40 ------- 0 4.0 0.0 0 1
+ 2.303005 1 0 ack 40 ------- 0 4.0 0.0 0 1
- 2.303005 1 0 ack 40 ------- 0 4.0 0.0 0 1
r 2.353112 1 0 ack 40 ------- 0 4.0 0.0 0 1
+ 2.353112 0 1 tcp 1040 ------- 0 0.0 4.0 1 2
- 2.353112 0 1 tcp 1040 ------- 0 0.0 4.0 1 2
+ 2.353112 0 1 tcp 1040 ------- 0 0.0 4.0 2 3
- 2.355885 0 1 tcp 1040 ------- 0 0.0 4.0 2 3
r 2.405885 0 1 tcp 1040 ------- 0 0.0 4.0 1 2
+ 2.405885 1 2 tcp 1040 ------- 0 0.0 4.0 1 2
- 2.405885 1 2 tcp 1040 ------- 0 0.0 4.0 1 2
r 2.408658 0 1 tcp 1040 ------- 0 0.0 4.0 2 3
+ 2.408658 1 2 tcp 1040 ------- 0 0.0 4.0 2 3
- 3.918337 1 2 tcp 1040 ------- 0 0.0 4.0 2 3
r 4.418337 1 2 tcp 1040 ------- 0 0.0 4.0 1 2
+ 4.418337 2 3 tcp 1040 ------- 0 0.0 4.0 1 2
- 4.418337 2 3 tcp 1040 ------- 0 0.0 4.0 1 2
r 5.93079 1 2 tcp 1040 ------- 0 0.0 4.0 2 3
+ 5.93079 2 3 tcp 1040 ------- 0 0.0 4.0 2 3
- 5.93079 2 3 tcp 1040 ------- 0 0.0 4.0 2 3
r 6.43079 2 3 tcp 1040 ------- 0 0.0 4.0 1 2
+ 6.43079 3 4 tcp 1040 ------- 0 0.0 4.0 1 2
- 6.43079 3 4 tcp 1040 ------- 0 0.0 4.0 1 2
r 6.443563 3 4 tcp 1040 ------- 0 0.0 4.0 1 2
+ 6.443563 4 3 ack 40 ------- 0 4.0 0.0 1 4
- 6.443563 4 3 ack 40 ------- 0 4.0 0.0 1 4
r 6.45367 4 3 ack 40 ------- 0 4.0 0.0 1 4
+ 6.45367 3 2 ack 40 ------- 0 4.0 0.0 1 4
- 6.45367 3 2 ack 40 ------- 0 4.0 0.0 1 4
r 7.011841 3 2 ack 40 ------- 0 4.0 0.0 1 4
+ 7.011841 2 1 ack 40 ------- 0 4.0 0.0 1 4
- 7.011841 2 1 ack 40 ------- 0 4.0 0.0 1 4
r 7.570012 2 1 ack 40 ------- 0 4.0 0.0 1 4
+ 7.570012 1 0 ack 40 ------- 0 4.0 0.0 1 4
- 7.570012 1 0 ack 40 ------- 0 4.0 0.0 1 4
r 7.620119 1 0 ack 40 ------- 0 4.0 0.0 1 4
+ 7.620119 0 1 tcp 1040 ------- 0 0.0 4.0 3 5
- 7.620119 0 1 tcp 1040 ------- 0 0.0 4.0 3 5
+ 7.620119 0 1 tcp 1040 ------- 0 0.0 4.0 4 6
- 7.622892 0 1 tcp 1040 ------- 0 0.0 4.0 4 6
r 7.672892 0 1 tcp 1040 ------- 0 0.0 4.0 3 5
+ 7.672892 1 2 tcp 1040 ------- 0 0.0 4.0 3 5
- 7.672892 1 2 tcp 1040 ------- 0 0.0 4.0 3 5
r 7.675665 0 1 tcp 1040 ------- 0 0.0 4.0 4 6
+ 7.675665 1 2 tcp 1040 ------- 0 0.0 4.0 4 6
r 7.943242 2 3 tcp 1040 ------- 0 0.0 4.0 2 3
+ 7.943242 3 4 tcp 1040 ------- 0 0.0 4.0 2 3
- 7.943242 3 4 tcp 1040 ------- 0 0.0 4.0 2 3
r 7.956015 3 4 tcp 1040 ------- 0 0.0 4.0 2 3
+ 7.956015 4 3 ack 40 ------- 0 4.0 0.0 2 7
- 7.956015 4 3 ack 40 ------- 0 4.0 0.0 2 7
r 7.966122 4 3 ack 40 ------- 0 4.0 0.0 2 7
+ 7.966122 3 2 ack 40 ------- 0 4.0 0.0 2 7
- 7.966122 3 2 ack 40 ------- 0 4.0 0.0 2 7
r 8.524293 3 2 ack 40 ------- 0 4.0 0.0 2 7
+ 8.524293 2 1 ack 40 ------- 0 4.0 0.0 2 7
- 8.524293 2 1 ack 40 ------- 0 4.0 0.0 2 7
r 9.082464 2 1 ack 40 ------- 0 4.0 0.0 2 7
+ 9.082464 1 0 ack 40 ------- 0 4.0 0.0 2 7
- 9.082464 1 0 ack 40 ------- 0 4.0 0.0 2 7
r 9.132571 1 0 ack 40 ------- 0 4.0 0.0 2 7
+ 9.132571 0 1 tcp 1040 ------- 0 0.0 4.0 5 8
- 9.132571 0 1 tcp 1040 ------- 0 0.0 4.0 5 8
+ 9.132571 0 1 tcp 1040 ------- 0 0.0 4.0 6 9
- 9.135344 0 1 tcp 1040 ------- 0 0.0 4.0 6 9
- 9.185344 1 2 tcp 1040 ------- 0 0.0 4.0 4 6
r 9.185344 0 1 tcp 1040 ------- 0 0.0 4.0 5 8
+ 9.185344 1 2 tcp 1040 ------- 0 0.0 4.0 5 8
r 9.188118 0 1 tcp 1040 ------- 0 0.0 4.0 6 9
+ 9.188118 1 2 tcp 1040 ------- 0 0.0 4.0 6 9
r 9.685344 1 2 tcp 1040 ------- 0 0.0 4.0 3 5
+ 9.685344 2 3 tcp 1040 ------- 0 0.0 4.0 3 5
- 9.685344 2 3 tcp 1040 ------- 0 0.0 4.0 3 5
- 10.697797 1 2 tcp 1040 ------- 0 0.0 4.0 5 8
r 11.197797 1 2 tcp 1040 ------- 0 0.0 4.0 4 6
+ 11.197797 2 3 tcp 1040 ------- 0 0.0 4.0 4 6
- 11.197797 2 3 tcp 1040 ------- 0 0.0 4.0 4 6
r 11.697797 2 3 tcp 1040 ------- 0 0.0 4.0 3 5
+ 11.697797 3 4 tcp 1040 ------- 0 0.0 4.0 3 5
- 11.697797 3 4 tcp 1040 ------- 0 0.0 4.0 3 5
r 11.71057 3 4 tcp 1040 ------- 0 0.0 4.0 3 5
+ 11.71057 4 3 ack 40 ------- 0 4.0 0.0 3 10
- 11.71057 4 3 ack 40 ------- 0 4.0 0.0 3 10
r 11.720677 4 3 ack 40 ------- 0 4.0 0.0 3 10
+ 11.720677 3 2 ack 40 ------- 0 4.0 0.0 3 10
- 11.720677 3 2 ack 40 ------- 0 4.0 0.0 3 10
- 12.210249 1 2 tcp 1040 ------- 0 0.0 4.0 6 9
r 12.278848 3 2 ack 40 ------- 0 4.0 0.0 3 10
+ 12.278848 2 1 ack 40 ------- 0 4.0 0.0 3 10
- 12.278848 2 1 ack 40 ------- 0 4.0 0.0 3 10
r 12.710249 1 2 tcp 1040 ------- 0 0.0 4.0 5 8
+ 12.710249 2 3 tcp 1040 ------- 0 0.0 4.0 5 8
- 12.710249 2 3 tcp 1040 ------- 0 0.0 4.0 5 8
r 12.837019 2 1 ack 40 ------- 0 4.0 0.0 3 10
+ 12.837019 1 0 ack 40 ------- 0 4.0 0.0 3 10
- 12.837019 1 0 ack 40 ------- 0 4.0 0.0 3 10
r 12.887126 1 0 ack 40 ------- 0 4.0 0.0 3 10
+ 12.887126 0 1 tcp 1040 ------- 0 0.0 4.0 7 11
- 12.887126 0 1 tcp 1040 ------- 0 0.0 4.0 7 11
+ 12.887126 0 1 tcp 1040 ------- 0 0.0 4.0 8 12
- 12.889899 0 1 tcp 1040 ------- 0 0.0 4.0 8 12
r 12.939899 0 1 tcp 1040 ------- 0 0.0 4.0 7 11
+ 12.939899 1 2 tcp 1040 ------- 0 0.0 4.0 7 11
r 12.942672 0 1 tcp 1040 ------- 0 0.0 4.0 8 12
+ 12.942672 1 2 tcp 1040 ------- 0 0.0 4.0 8 12
r 13.210249 2 3 tcp 1040 ------- 0 0.0 4.0 4 6
+ 13.210249 3 4 tcp 1040 ------- 0 0.0 4.0 4 6
- 13.210249 3 4 tcp 1040 ------- 0 0.0 4.0 4 6
r 13.223022 3 4 tcp 1040 ------- 0 0.0 4.0 4 6
+ 13.223022 4 3 ack 40 ------- 0 4.0 0.0 4 13
- 13.223022 4 3 ack 40 ------- 0 4.0 0.0 4 13
r 13.233129 4 3 ack 40 ------- 0 4.0 0.0 4 13
+ 13.233129 3 2 ack 40 ------- 0 4.0 0.0 4 13
- 13.233129 3 2 ack 40 ------- 0 4.0 0.0 4 13
- 13.722701 1 2 tcp 1040 ------- 0 0.0 4.0 7 11
r 13.7913 3 2 ack 40 ------- 0 4.0 0.0 4 13
+ 13.7913 2 1 ack 40 ------- 0 4.0 0.0 4 13
- 13.7913 2 1 ack 40 ------- 0 4.0 0.0 4 13
r 14.222701 1 2 tcp 1040 ------- 0 0.0 4.0 6 9
+ 14.222701 2 3 tcp 1040 ------- 0 0.0 4.0 6 9
- 14.222701 2 3 tcp 1040 ------- 0 0.0 4.0 6 9
r 14.349471 2 1 ack 40 ------- 0 4.0 0.0 4 13
+ 14.349471 1 0 ack 40 ------- 0 4.0 0.0 4 13
- 14.349471 1 0 ack 40 ------- 0 4.0 0.0 4 13
r 14.399578 1 0 ack 40 ------- 0 4.0 0.0 4 13
+ 14.399578 0 1 tcp 1040 ------- 0 0.0 4.0 9 14
- 14.399578 0 1 tcp 1040 ------- 0 0.0 4.0 9 14
+ 14.399578 0 1 tcp 1040 ------- 0 0.0 4.0 10 15
- 14.402351 0 1 tcp 1040 ------- 0 0.0 4.0 10 15
r 14.452351 0 1 tcp 1040 ------- 0 0.0 4.0 9 14
+ 14.452351 1 2 tcp 1040 ------- 0 0.0 4.0 9 14
r 14.455125 0 1 tcp 1040 ------- 0 0.0 4.0 10 15
+ 14.455125 1 2 tcp 1040 ------- 0 0.0 4.0 10 15
r 14.722701 2 3 tcp 1040 ------- 0 0.0 4.0 5 8
+ 14.722701 3 4 tcp 1040 ------- 0 0.0 4.0 5 8
- 14.722701 3 4 tcp 1040 ------- 0 0.0 4.0 5 8
r 14.735474 3 4 tcp 1040 ------- 0 0.0 4.0 5 8
+ 14.735474 4 3 ack 40 ------- 0 4.0 0.0 5 16
- 14.735474 4 3 ack 40 ------- 0 4.0 0.0 5 16
r 14.745581 4 3 ack 40 ------- 0 4.0 0.0 5 16
+ 14.745581 3 2 ack 40 ------- 0 4.0 0.0 5 16
- 14.745581 3 2 ack 40 ------- 0 4.0 0.0 5 16
- 15.235153 1 2 tcp 1040 ------- 0 0.0 4.0 8 12
r 15.303752 3 2 ack 40 ------- 0 4.0 0.0 5 16
+ 15.303752 2 1 ack 40 ------- 0 4.0 0.0 5 16
- 15.303752 2 1 ack 40 ------- 0 4.0 0.0 5 16
r 15.735153 1 2 tcp 1040 ------- 0 0.0 4.0 7 11
+ 15.735153 2 3 tcp 1040 ------- 0 0.0 4.0 7 11
- 15.735153 2 3 tcp 1040 ------- 0 0.0 4.0 7 11
r 15.861924 2 1 ack 40 ------- 0 4.0 0.0 5 16
+ 15.861924 1 0 ack 40 ------- 0 4.0 0.0 5 16
- 15.861924 1 0 ack 40 ------- 0 4.0 0.0 5 16
r 15.91203 1 0 ack 40 ------- 0 4.0 0.0 5 16
+ 15.91203 0 1 tcp 1040 ------- 0 0.0 4.0 11 17
- 15.91203 0 1 tcp 1040 ------- 0 0.0 4.0 11 17
+ 15.91203 0 1 tcp 1040 ------- 0 0.0 4.0 12 18
- 15.914804 0 1 tcp 1040 ------- 0 0.0 4.0 12 18
r 15.964804 0 1 tcp 1040 ------- 0 0.0 4.0 11 17
+ 15.964804 1 2 tcp 1040 ------- 0 0.0 4.0 11 17
r 15.967577 0 1 tcp 1040 ------- 0 0.0 4.0 12 18
+ 15.967577 1 2 tcp 1040 ------- 0 0.0 4.0 12 18
r 16.235153 2 3 tcp 1040 ------- 0 0.0 4.0 6 9
+ 16.235153 3 4 tcp 1040 ------- 0 0.0 4.0 6 9
- 16.235153 3 4 tcp 1040 ------- 0 0.0 4.0 6 9
r 16.247927 3 4 tcp 1040 ------- 0 0.0 4.0 6 9
+ 16.247927 4 3 ack 40 ------- 0 4.0 0.0 6 19
- 16.247927 4 3 ack 40 ------- 0 4.0 0.0 6 19
r 16.258033 4 3 ack 40 ------- 0 4.0 0.0 6 19
+ 16.258033 3 2 ack 40 ------- 0 4.0 0.0 6 19
- 16.258033 3 2 ack 40 ------- 0 4.0 0.0 6 19
- 16.747606 1 2 tcp 1040 ------- 0 0.0 4.0 9 14
r 16.816205 3 2 ack 40 ------- 0 4.0 0.0 6 19
+ 16.816205 2 1 ack 40 ------- 0 4.0 0.0 6 19
- 16.816205 2 1 ack 40 ------- 0 4.0 0.0 6 19
r 17.247606 1 2 tcp 1040 ------- 0 0.0 4.0 8 12
+ 17.247606 2 3 tcp 1040 ------- 0 0.0 4.0 8 12
- 17.247606 2 3 tcp 1040 ------- 0 0.0 4.0 8 12
r 17.374376 2 1 ack 40 ------- 0 4.0 0.0 6 19
+ 17.374376 1 0 ack 40 ------- 0 4.0 0.0 6 19
- 17.374376 1 0 ack 40 ------- 0 4.0 0.0 6 19
r 17.424483 1 0 ack 40 ------- 0 4.0 0.0 6 19
+ 17.424483 0 1 tcp 1040 ------- 0 0.0 4.0 13 20
- 17.424483 0 1 tcp 1040 ------- 0 0.0 4.0 13 20
+ 17.424483 0 1 tcp 1040 ------- 0 0.0 4.0 14 21
- 17.427256 0 1 tcp 1040 ------- 0 0.0 4.0 14 21
r 17.477256 0 1 tcp 1040 ------- 0 0.0 4.0 13 20
+ 17.477256 1 2 tcp 1040 ------- 0 0.0 4.0 13 20
r 17.480029 0 1 tcp 1040 ------- 0 0.0 4.0 14 21
+ 17.480029 1 2 tcp 1040 ------- 0 0.0 4.0 14 21
r 17.747606 2 3 tcp 1040 ------- 0 0.0 4.0 7 11
+ 17.747606 3 4 tcp 1040 ------- 0 0.0 4.0 7 11
- 17.747606 3 4 tcp 1040 ------- 0 0.0 4.0 7 11
r 17.760379 3 4 tcp 1040 ------- 0 0.0 4.0 7 11
+ 17.760379 4 3 ack 40 ------- 0 4.0 0.0 7 22
- 17.760379 4 3 ack 40 ------- 0 4.0 0.0 7 22
r 17.770486 4 3 ack 40 ------- 0 4.0 0.0 7 22
+ 17.770486 3 2 ack 40 ------- 0 4.0 0.0 7 22
- 17.770486 3 2 ack 40 ------- 0 4.0 0.0 7 22
- 18.260058 1 2 tcp 1040 ------- 0 0.0 4.0 10 15
r 18.328657 3 2 ack 40 ------- 0 4.0 0.0 7 22
+ 18.328657 2 1 ack 40 ------- 0 4.0 0.0 7 22
- 18.328657 2 1 ack 40 ------- 0 4.0 0.0 7 22
r 18.760058 1 2 tcp 1040 ------- 0 0.0 4.0 9 14
+ 18.760058 2 3 tcp 1040 ------- 0 0.0 4.0 9 14
- 18.760058 2 3 tcp 1040 ------- 0 0.0 4.0 9 14
r 18.886828 2 1 ack 40 ------- 0 4.0 0.0 7 22
+ 18.886828 1 0 ack 40 ------- 0 4.0 0.0 7 22
- 18.886828 1 0 ack 40 ------- 0 4.0 0.0 7 22
r 18.936935 1 0 ack 40 ------- 0 4.0 0.0 7 22
+ 18.936935 0 1 tcp 1040 ------- 0 0.0 4.0 15 23
- 18.936935 0 1 tcp 1040 ------- 0 0.0 4.0 15 23
+ 18.936935 0 1 tcp 1040 ------- 0 0.0 4.0 16 24
- 18.939708 0 1 tcp 1040 ------- 0 0.0 4.0 16 24
r 18.989708 0 1 tcp 1040 ------- 0 0.0 4.0 15 23
+ 18.989708 1 2 tcp 1040 ------- 0 0.0 4.0 15 23
r 18.992482 0 1 tcp 1040 ------- 0 0.0 4.0 16 24
+ 18.992482 1 2 tcp 1040 ------- 0 0.0 4.0 16 24
r 19.260058 2 3 tcp 1040 ------- 0 0.0 4.0 8 12
+ 19.260058 3 4 tcp 1040 ------- 0 0.0 4.0 8 12
- 19.260058 3 4 tcp 1040 ------- 0 0.0 4.0 8 12
r 19.272831 3 4 tcp 1040 ------- 0 0.0 4.0 8 12
+ 19.272831 4 3 ack 40 ------- 0 4.0 0.0 8 25
- 19.272831 4 3 ack 40 ------- 0 4.0 0.0 8 25
r 19.282938 4 3 ack 40 ------- 0 4.0 0.0 8 25
+ 19.282938 3 2 ack 40 ------- 0 4.0 0.0 8 25
- 19.282938 3 2 ack 40 ------- 0 4.0 0.0 8 25
- 19.77251 1 2 tcp 1040 ------- 0 0.0 4.0 11 17
r 19.841109 3 2 ack 40 ------- 0 4.0 0.0 8 25
+ 19.841109 2 1 ack 40 ------- 0 4.0 0.0 8 25
- 19.841109 2 1 ack 40 ------- 0 4.0 0.0 8 25
r 20.27251 1 2 tcp 1040 ------- 0 0.0 4.0 10 15
+ 20.27251 2 3 tcp 1040 ------- 0 0.0 4.0 10 15
- 20.27251 2 3 tcp 1040 ------- 0 0.0 4.0 10 15
r 20.39928 2 1 ack 40 ------- 0 4.0 0.0 8 25
+ 20.39928 1 0 ack 40 ------- 0 4.0 0.0 8 25
- 20.39928 1 0 ack 40 ------- 0 4.0 0.0 8 25
r 20.449387 1 0 ack 40 ------- 0 4.0 0.0 8 25
+ 20.449387 0 1 tcp 1040 ------- 0 0.0 4.0 17 26
- 20.449387 0 1 tcp 1040 ------- 0 0.0 4.0 17 26
+ 20.449387 0 1 tcp 1040 ------- 0 0.0 4.0 18 27
- 20.45216 0 1 tcp 1040 ------- 0 0.0 4.0 18 27
r 20.50216 0 1 tcp 1040 ------- 0 0.0 4.0 17 26
+ 20.50216 1 2 tcp 1040 ------- 0 0.0 4.0 17 26
r 20.504934 0 1 tcp 1040 ------- 0 0.0 4.0 18 27
+ 20.504934 1 2 tcp 1040 ------- 0 0.0 4.0 18 27
r 20.77251 2 3 tcp 1040 ------- 0 0.0 4.0 9 14
+ 20.77251 3 4 tcp 1040 ------- 0 0.0 4.0 9 14
- 20.77251 3 4 tcp 1040 ------- 0 0.0 4.0 9 14
r 20.785284 3 4 tcp 1040 ------- 0 0.0 4.0 9 14
+ 20.785284 4 3 ack 40 ------- 0 4.0 0.0 9 28
- 20.785284 4 3 ack 40 ------- 0 4.0 0.0 9 28
r 20.79539 4 3 ack 40 ------- 0 4.0 0.0 9 28
+ 20.79539 3 2 ack 40 ------- 0 4.0 0.0 9 28
- 20.79539 3 2 ack 40 ------- 0 4.0 0.0 9 28
- 21.284963 1 2 tcp 1040 ------- 0 0.0 4.0 12 18
r 21.353562 3 2 ack 40 ------- 0 4.0 0.0 9 28
+ 21.353562 2 1 ack 40 ------- 0 4.0 0.0 9 28
- 21.353562 2 1 ack 40 ------- 0 4.0 0.0 9 28
r 21.784963 1 2 tcp 1040 ------- 0 0.0 4.0 11 17
+ 21.784963 2 3 tcp 1040 ------- 0 0.0 4.0 11 17
- 21.784963 2 3 tcp 1040 ------- 0 0.0 4.0 11 17
r 21.911733 2 1 ack 40 ------- 0 4.0 0.0 9 28
+ 21.911733 1 0 ack 40 ------- 0 4.0 0.0 9 28
- 21.911733 1 0 ack 40 ------- 0 4.0 0.0 9 28
r 21.961839 1 0 ack 40 ------- 0 4.0 0.0 9 28
+ 21.961839 0 1 tcp 1040 ------- 0 0.0 4.0 19 29
- 21.961839 0 1 tcp 1040 ------- 0 0.0 4.0 19 29
+ 21.961839 0 1 tcp 1040 ------- 0 0.0 4.0 20 30
- 21.964613 0 1 tcp 1040 ------- 0 0.0 4.0 20 30
r 22.014613 0 1 tcp 1040 ------- 0 0.0 4.0 19 29
+ 22.014613 1 2 tcp 1040 ------- 0 0.0 4.0 19 29
r 22.017386 0 1 tcp 1040 ------- 0 0.0 4.0 20 30
+ 22.017386 1 2 tcp 1040 ------- 0 0.0 4.0 20 30
r 22.284963 2 3 tcp 1040 ------- 0 0.0 4.0 10 15
+ 22.284963 3 4 tcp 1040 ------- 0 0.0 4.0 10 15
- 22.284963 3 4 tcp 1040 ------- 0 0.0 4.0 10 15
r 22.297736 3 4 tcp 1040 ------- 0 0.0 4.0 10 15
+ 22.297736 4 3 ack 40 ------- 0 4.0 0.0 10 31
- 22.297736 4 3 ack 40 ------- 0 4.0 0.0 10 31
r 22.307843 4 3 ack 40 ------- 0 4.0 0.0 10 31
+ 22.307843 3 2 ack 40 ------- 0 4.0 0.0 10 31
- 22.307843 3 2 ack 40 ------- 0 4.0 0.0 10 31
- 22.797415 1 2 tcp 1040 ------- 0 0.0 4.0 13 20
r 22.866014 3 2 ack 40 ------- 0 4.0 0.0 10 31
+ 22.866014 2 1 ack 40 ------- 0 4.0 0.0 10 31
- 22.866014 2 1 ack 40 ------- 0 4.0 0.0 10 31
r 23.297415 1 2 tcp 1040 ------- 0 0.0 4.0 12 18
+ 23.297415 2 3 tcp 1040 ------- 0 0.0 4.0 12 18
- 23.297415 2 3 tcp 1040 ------- 0 0.0 4.0 12 18
r 23.424185 2 1 ack 40 ------- 0 4.0 0.0 10 31
+ 23.424185 1 0 ack 40 ------- 0 4.0 0.0 10 31
- 23.424185 1 0 ack 40 ------- 0 4.0 0.0 10 31
r 23.474292 1 0 ack 40 ------- 0 4.0 0.0 10 31
+ 23.474292 0 1 tcp 1040 ------- 0 0.0 4.0 21 32
- 23.474292 0 1 tcp 1040 ------- 0 0.0 4.0 21 32
+ 23.474292 0 1 tcp 1040 ------- 0 0.0 4.0 22 33
- 23.477065 0 1 tcp 1040 ------- 0 0.0 4.0 22 33
r 23.527065 0 1 tcp 1040 ------- 0 0.0 4.0 21 32
+ 23.527065 1 2 tcp 1040 ------- 0 0.0 4.0 21 32
r 23.529838 0 1 tcp 1040 ------- 0 0.0 4.0 22 33
+ 23.529838 1 2 tcp 1040 ------- 0 0.0 4.0 22 33
r 23.797415 2 3 tcp 1040 ------- 0 0.0 4.0 11 17
+ 23.797415 3 4 tcp 1040 ------- 0 0.0 4.0 11 17
- 23.797415 3 4 tcp 1040 ------- 0 0.0 4.0 11 17
r 23.810188 3 4 tcp 1040 ------- 0 0.0 4.0 11 17
+ 23.810188 4 3 ack 40 ------- 0 4.0 0.0 11 34
- 23.810188 4 3 ack 40 ------- 0 4.0 0.0 11 34
r 23.820295 4 3 ack 40 ------- 0 4.0 0.0 11 34
+ 23.820295 3 2 ack 40 ------- 0 4.0 0.0 11 34
- 23.820295 3 2 ack 40 ------- 0 4.0 0.0 11 34
- 24.309867 1 2 tcp 1040 ------- 0 0.0 4.0 14 21
r 24.378466 3 2 ack 40 ------- 0 4.0 0.0 11 34
+ 24.378466 2 1 ack 40 ------- 0 4.0 0.0 11 34
- 24.378466 2 1 ack 40 ------- 0 4.0 0.0 11 34
r 24.809867 1 2 tcp 1040 ------- 0 0.0 4.0 13 20
+ 24.809867 2 3 tcp 1040 ------- 0 0.0 4.0 13 20
- 24.809867 2 3 tcp 1040 ------- 0 0.0 4.0 13 20
r 24.936637 2 1 ack 40 ------- 0 4.0 0.0 11 34
+ 24.936637 1 0 ack 40 ------- 0 4.0 0.0 11 34
- 24.936637 1 0 ack 40 ------- 0 4.0 0.0 11 34
r 24.986744 1 0 ack 40 ------- 0 4.0 0.0 11 34
+ 24.986744 0 1 tcp 1040 ------- 0 0.0 4.0 23 35
- 24.986744 0 1 tcp 1040 ------- 0 0.0 4.0 23 35
+ 24.986744 0 1 tcp 1040 ------- 0 0.0 4.0 24 36
- 24.989517 0 1 tcp 1040 ------- 0 0.0 4.0 24 36
r 25.039517 0 1 tcp 1040 ------- 0 0.0 4.0 23 35
+ 25.039517 1 2 tcp 1040 ------- 0 0.0 4.0 23 35
r 25.042291 0 1 tcp 1040 ------- 0 0.0 4.0 24 36
+ 25.042291 1 2 tcp 1040 ------- 0 0.0 4.0 24 36
r 25.309867 2 3 tcp 1040 ------- 0 0.0 4.0 12 18
+ 25.309867 3 4 tcp 1040 ------- 0 0.0 4.0 12 18
- 25.309867 3 4 tcp 1040 ------- 0 0.0 4.0 12 18
r 25.32264 3 4 tcp 1040 ------- 0 0.0 4.0 12 18
+ 25.32264 4 3 ack 40 ------- 0 4.0 0.0 12 37
- 25.32264 4 3 ack 40 ------- 0 4.0 0.0 12 37
r 25.332747 4 3 ack 40 ------- 0 4.0 0.0 12 37
+ 25.332747 3 2 ack 40 ------- 0 4.0 0.0 12 37
- 25.332747 3 2 ack 40 ------- 0 4.0 0.0 12 37
- 25.822319 1 2 tcp 1040 ------- 0 0.0 4.0 15 23
r 25.890918 3 2 ack 40 ------- 0 4.0 0.0 12 37
+ 25.890918 2 1 ack 40 ------- 0 4.0 0.0 12 37
- 25.890918 2 1 ack 40 ------- 0 4.0 0.0 12 37
r 26.322319 1 2 tcp 1040 ------- 0 0.0 4.0 14 21
+ 26.322319 2 3 tcp 1040 ------- 0 0.0 4.0 14 21
- 26.322319 2 3 tcp 1040 ------- 0 0.0 4.0 14 21
r 26.44909 2 1 ack 40 ------- 0 4.0 0.0 12 37
+ 26.44909 1 0 ack 40 ------- 0 4.0 0.0 12 37
- 26.44909 1 0 ack 40 ------- 0 4.0 0.0 12 37
r 26.499196 1 0 ack 40 ------- 0 4.0 0.0 12 37
+ 26.499196 0 1 tcp 1040 ------- 0 0.0 4.0 25 38
- 26.499196 0 1 tcp 1040 ------- 0 0.0 4.0 25 38
+ 26.499196 0 1 tcp 1040 ------- 0 0.0 4.0 26 39
- 26.50197 0 1 tcp 1040 ------- 0 0.0 4.0 26 39
r 26.55197 0 1 tcp 1040 ------- 0 0.0 4.0 25 38
+ 26.55197 1 2 tcp 1040 ------- 0 0.0 4.0 25 38
r 26.554743 0 1 tcp 1040 ------- 0 0.0 4.0 26 39
+ 26.554743 1 2 tcp 1040 ------- 0 0.0 4.0 26 39
r 26.822319 2 3 tcp 1040 ------- 0 0.0 4.0 13 20
+ 26.822319 3 4 tcp 1040 ------- 0 0.0 4.0 13 20
- 26.822319 3 4 tcp 1040 ------- 0 0.0 4.0 13 20
r 26.835093 3 4 tcp 1040 ------- 0 0.0 4.0 13 20
+ 26.835093 4 3 ack 40 ------- 0 4.0 0.0 13 40
- 26.835093 4 3 ack 40 ------- 0 4.0 0.0 13 40
r 26.845199 4 3 ack 40 ------- 0 4.0 0.0 13 40
+ 26.845199 3 2 ack 40 ------- 0 4.0 0.0 13 40
- 26.845199 3 2 ack 40 ------- 0 4.0 0.0 13 40
- 27.334772 1 2 tcp 1040 ------- 0 0.0 4.0 16 24
r 27.403371 3 2 ack 40 ------- 0 4.0 0.0 13 40
+ 27.403371 2 1 ack 40 ------- 0 4.0 0.0 13 40
- 27.403371 2 1 ack 40 ------- 0 4.0 0.0 13 40
r 27.834772 1 2 tcp 1040 ------- 0 0.0 4.0 15 23
+ 27.834772 2 3 tcp 1040 ------- 0 0.0 4.0 15 23
- 27.834772 2 3 tcp 1040 ------- 0 0.0 4.0 15 23
r 27.961542 2 1 ack 40 ------- 0 4.0 0.0 13 40
+ 27.961542 1 0 ack 40 ------- 0 4.0 0.0 13 40
- 27.961542 1 0 ack 40 ------- 0 4.0 0.0 13 40
r 28.011649 1 0 ack 40 ------- 0 4.0 0.0 13 40
+ 28.011649 0 1 tcp 1040 ------- 0 0.0 4.0 27 41
- 28.011649 0 1 tcp 1040 ------- 0 0.0 4.0 27 41
+ 28.011649 0 1 tcp 1040 ------- 0 0.0 4.0 28 42
- 28.014422 0 1 tcp 1040 ------- 0 0.0 4.0 28 42
r 28.064422 0 1 tcp 1040 ------- 0 0.0 4.0 27 41
+ 28.064422 1 2 tcp 1040 ------- 0 0.0 4.0 27 41
r 28.067195 0 1 tcp 1040 ------- 0 0.0 4.0 28 42
+ 28.067195 1 2 tcp 1040 ------- 0 0.0 4.0 28 42
r 28.334772 2 3 tcp 1040 ------- 0 0.0 4.0 14 21
+ 28.334772 3 4 tcp 1040 ------- 0 0.0 4.0 14 21
- 28.334772 3 4 tcp 1040 ------- 0 0.0 4.0 14 21
r 28.347545 3 4 tcp 1040 ------- 0 0.0 4.0 14 21
+ 28.347545 4 3 ack 40 ------- 0 4.0 0.0 14 43
- 28.347545 4 3 ack 40 ------- 0 4.0 0.0 14 43
r 28.357652 4 3 ack 40 ------- 0 4.0 0.0 14 43
+ 28.357652 3 2 ack 40 ------- 0 4.0 0.0 14 43
- 28.357652 3 2 ack 40 ------- 0 4.0 0.0 14 43
- 28.847224 1 2 tcp 1040 ------- 0 0.0 4.0 17 26
r 28.915823 3 2 ack 40 ------- 0 4.0 0.0 14 43
+ 28.915823 2 1 ack 40 ------- 0 4.0 0.0 14 43
- 28.915823 2 1 ack 40 ------- 0 4.0 0.0 14 43
r 29.347224 1 2 tcp 1040 ------- 0 0.0 4.0 16 24
+ 29.347224 2 3 tcp 1040 ------- 0 0.0 4.0 16 24
- 29.347224 2 3 tcp 1040 ------- 0 0.0 4.0 16 24
r 29.473994 2 1 ack 40 ------- 0 4.0 0.0 14 43
+ 29.473994 1 0 ack 40 ------- 0 4.0 0.0 14 43
- 29.473994 1 0 ack 40 ------- 0 4.0 0.0 14 43
r 29.524101 1 0 ack 40 ------- 0 4.0 0.0 14 43
+ 29.524101 0 1 tcp 1040 ------- 0 0.0 4.0 29 44
- 29.524101 0 1 tcp 1040 ------- 0 0.0 4.0 29 44
+ 29.524101 0 1 tcp 1040 ------- 0 0.0 4.0 30 45
- 29.526874 0 1 tcp 1040 ------- 0 0.0 4.0 30 45
r 29.576874 0 1 tcp 1040 ------- 0 0.0 4.0 29 44
+ 29.576874 1 2 tcp 1040 ------- 0 0.0 4.0 29 44
r 29.579647 0 1 tcp 1040 ------- 0 0.0 4.0 30 45
+ 29.579647 1 2 tcp 1040 ------- 0 0.0 4.0 30 45
r 29.847224 2 3 tcp 1040 ------- 0 0.0 4.0 15 23
+ 29.847224 3 4 tcp 1040 ------- 0 0.0 4.0 15 23
- 29.847224 3 4 tcp 1040 ------- 0 0.0 4.0 15 23
r 29.859997 3 4 tcp 1040 ------- 0 0.0 4.0 15 23
+ 29.859997 4 3 ack 40 ------- 0 4.0 0.0 15 46
- 29.859997 4 3 ack 40 ------- 0 4.0 0.0 15 46
r 29.870104 4 3 ack 40 ------- 0 4.0 0.0 15 46
+ 29.870104 3 2 ack 40 ------- 0 4.0 0.0 15 46
- 29.870104 3 2 ack 40 ------- 0 4.0 0.0 15 46
- 30.359676 1 2 tcp 1040 ------- 0 0.0 4.0 18 27
r 30.428275 3 2 ack 40 ------- 0 4.0 0.0 15 46
+ 30.428275 2 1 ack 40 ------- 0 4.0 0.0 15 46
- 30.428275 2 1 ack 40 ------- 0 4.0 0.0 15 46
r 30.859676 1 2 tcp 1040 ------- 0 0.0 4.0 17 26
+ 30.859676 2 3 tcp 1040 ------- 0 0.0 4.0 17 26
- 30.859676 2 3 tcp 1040 ------- 0 0.0 4.0 17 26
r 30.986446 2 1 ack 40 ------- 0 4.0 0.0 15 46
+ 30.986446 1 0 ack 40 ------- 0 4.0 0.0 15 46
- 30.986446 1 0 ack 40 ------- 0 4.0 0.0 15 46
r 31.036553 1 0 ack 40 ------- 0 4.0 0.0 15 46
+ 31.036553 0 1 tcp 1040 ------- 0 0.0 4.0 31 47
- 31.036553 0 1 tcp 1040 ------- 0 0.0 4.0 31 47
+ 31.036553 0 1 tcp 1040 ------- 0 0.0 4.0 32 48
- 31.039326 0 1 tcp 1040 ------- 0 0.0 4.0 32 48
r 31.089326 0 1 tcp 1040 ------- 0 0.0 4.0 31 47
+ 31.089326 1 2 tcp 1040 ------- 0 0.0 4.0 31 47
r 31.0921 0 1 tcp 1040 ------- 0 0.0 4.0 32 48
+ 31.0921 1 2 tcp 1040 ------- 0 0.0 4.0 32 48
r 31.359676 2 3 tcp 1040 ------- 0 0.0 4.0 16 24
+ 31.359676 3 4 tcp 1040 ------- 0 0.0 4.0 16 24
- 31.359676 3 4 tcp 1040 ------- 0 0.0 4.0 16 24
r 31.37245 3 4 tcp 1040 ------- 0 0.0 4.0 16 24
+ 31.37245 4 3 ack 40 ------- 0 4.0 0.0 16 49
- 31.37245 4 3 ack 40 ------- 0 4.0 0.0 16 49
r 31.382556 4 3 ack 40 ------- 0 4.0 0.0 16 49
+ 31.382556 3 2 ack 40 ------- 0 4.0 0.0 16 49
- 31.382556 3 2 ack 40 ------- 0 4.0 0.0 16 49
- 31.872129 1 2 tcp 1040 ------- 0 0.0 4.0 19 29
r 31.940727 3 2 ack 40 ------- 0 4.0 0.0 16 49
+ 31.940727 2 1 ack 40 ------- 0 4.0 0.0 16 49
- 31.940727 2 1 ack 40 ------- 0 4.0 0.0 16 49
r 32.372129 1 2 tcp 1040 ------- 0 0.0 4.0 18 27
+ 32.372129 2 3 tcp 1040 ------- 0 0.0 4.0 18 27
- 32.372129 2 3 tcp 1040 ------- 0 0.0 4.0 18 27
r 32.498899 2 1 ack 40 ------- 0 4.0 0.0 16 49
+ 32.498899 1 0 ack 40 ------- 0 4.0 0.0 16 49
- 32.498899 1 0 ack 40 ------- 0 4.0 0.0 16 49
r 32.549005 1 0 ack 40 ------- 0 4.0 0.0 16 49
+ 32.549005 0 1 tcp 1040 ------- 0 0.0 4.0 33 50
- 32.549005 0 1 tcp 1040 ------- 0 0.0 4.0 33 50
+ 32.549005 0 1 tcp 1040 ------- 0 0.0 4.0 34 51
- 32.551779 0 1 tcp 1040 ------- 0 0.0 4.0 34 51
r 32.601779 0 1 tcp 1040 ------- 0 0.0 4.0 33 50
+ 32.601779 1 2 tcp 1040 ------- 0 0.0 4.0 33 50
r 32.604552 0 1 tcp 1040 ------- 0 0.0 4.0 34 51
+ 32.604552 1 2 tcp 1040 ------- 0 0.0 4.0 34 51
r 32.872129 2 3 tcp 1040 ------- 0 0.0 4.0 17 26
+ 32.872129 3 4 tcp 1040 ------- 0 0.0 4.0 17 26
- 32.872129 3 4 tcp 1040 ------- 0 0.0 4.0 17 26
r 32.884902 3 4 tcp 1040 ------- 0 0.0 4.0 17 26
+ 32.884902 4 3 ack 40 ------- 0 4.0 0.0 17 52
- 32.884902 4 3 ack 40 ------- 0 4.0 0.0 17 52
r 32.895009 4 3 ack 40 ------- 0 4.0 0.0 17 52
+ 32.895009 3 2 ack 40 ------- 0 4.0 0.0 17 52
- 32.895009 3 2 ack 40 ------- 0 4.0 0.0 17 52
- 33.384581 1 2 tcp 1040 ------- 0 0.0 4.0 20 30
r 33.45318 3 2 ack 40 ------- 0 4.0 0.0 17 52
+ 33.45318 2 1 ack 40 ------- 0 4.0 0.0 17 52
- 33.45318 2 1 ack 40 ------- 0 4.0 0.0 17 52
r 33.884581 1 2 tcp 1040 ------- 0 0.0 4.0 19 29
+ 33.884581 2 3 tcp 1040 ------- 0 0.0 4.0 19 29
- 33.884581 2 3 tcp 1040 ------- 0 0.0 4.0 19 29
r 34.011351 2 1 ack 40 ------- 0 4.0 0.0 17 52
+ 34.011351 1 0 ack 40 ------- 0 4.0 0.0 17 52
- 34.011351 1 0 ack 40 ------- 0 4.0 0.0 17 52
r 34.061458 1 0 ack 40 ------- 0 4.0 0.0 17 52
+ 34.061458 0 1 tcp 1040 ------- 0 0.0 4.0 35 53
- 34.061458 0 1 tcp 1040 ------- 0 0.0 4.0 35 53
+ 34.061458 0 1 tcp 1040 ------- 0 0.0 4.0 36 54
- 34.064231 0 1 tcp 1040 ------- 0 0.0 4.0 36 54
r 34.114231 0 1 tcp 1040 ------- 0 0.0 4.0 35 53
+ 34.114231 1 2 tcp 1040 ------- 0 0.0 4.0 35 53
r 34.117004 0 1 tcp 1040 ------- 0 0.0 4.0 36 54
+ 34.117004 1 2 tcp 1040 ------- 0 0.0 4.0 36 54
r 34.384581 2 3 tcp 1040 ------- 0 0.0 4.0 18 27
+ 34.384581 3 4 tcp 1040 ------- 0 0.0 4.0 18 27
- 34.384581 3 4 tcp 1040 ------- 0 0.0 4.0 18 27
r 34.397354 3 4 tcp 1040 ------- 0 0.0 4.0 18 27
+ 34.397354 4 3 ack 40 ------- 0 4.0 0.0 18 55
- 34.397354 4 3 ack 40 ------- 0 4.0 0.0 18 55
r 34.407461 4 3 ack 40 ------- 0 4.0 0.0 18 55
+ 34.407461 3 2 ack 40 ------- 0 4.0 0.0 18 55
- 34.407461 3 2 ack 40 ------- 0 4.0 0.0 18 55
- 34.897033 1 2 tcp 1040 ------- 0 0.0 4.0 21 32
r 34.965632 3 2 ack 40 ------- 0 4.0 0.0 18 55
+ 34.965632 2 1 ack 40 ------- 0 4.0 0.0 18 55
- 34.965632 2 1 ack 40 ------- 0 4.0 0.0 18 55
r 35.397033 1 2 tcp 1040 ------- 0 0.0 4.0 20 30
+ 35.397033 2 3 tcp 1040 ------- 0 0.0 4.0 20 30
- 35.397033 2 3 tcp 1040 ------- 0 0.0 4.0 20 30
r 35.523803 2 1 ack 40 ------- 0 4.0 0.0 18 55
+ 35.523803 1 0 ack 40 ------- 0 4.0 0.0 18 55
- 35.523803 1 0 ack 40 ------- 0 4.0 0.0 18 55
r 35.57391 1 0 ack 40 ------- 0 4.0 0.0 18 55
+ 35.57391 0 1 tcp 1040 ------- 0 0.0 4.0 37 56
- 35.57391 0 1 tcp 1040 ------- 0 0.0 4.0 37 56
+ 35.57391 0 1 tcp 1040 ------- 0 0.0 4.0 38 57
- 35.576683 0 1 tcp 1040 ------- 0 0.0 4.0 38 57
r 35.626683 0 1 tcp 1040 ------- 0 0.0 4.0 37 56
+ 35.626683 1 2 tcp 1040 ------- 0 0.0 4.0 37 56
r 35.629457 0 1 tcp 1040 ------- 0 0.0 4.0 38 57
+ 35.629457 1 2 tcp 1040 ------- 0 0.0 4.0 38 57
r 35.897033 2 3 tcp 1040 ------- 0 0.0 4.0 19 29
+ 35.897033 3 4 tcp 1040 ------- 0 0.0 4.0 19 29
- 35.897033 3 4 tcp 1040 ------- 0 0.0 4.0 19 29
r 35.909806 3 4 tcp 1040 ------- 0 0.0 4.0 19 29
+ 35.909806 4 3 ack 40 ------- 0 4.0 0.0 19 58
- 35.909806 4 3 ack 40 ------- 0 4.0 0.0 19 58
r 35.919913 4 3 ack 40 ------- 0 4.0 0.0 19 58
+ 35.919913 3 2 ack 40 ------- 0 4.0 0.0 19 58
- 35.919913 3 2 ack 40 ------- 0 4.0 0.0 19 58
- 36.409485 1 2 tcp 1040 ------- 0 0.0 4.0 22 33
r 36.478084 3 2 ack 40 ------- 0 4.0 0.0 19 58
+ 36.478084 2 1 ack 40 ------- 0 4.0 0.0 19 58
- 36.478084 2 1 ack 40 ------- 0 4.0 0.0 19 58
r 36.909485 1 2 tcp 1040 ------- 0 0.0 4.0 21 32
+ 36.909485 2 3 tcp 1040 ------- 0 0.0 4.0 21 32
- 36.909485 2 3 tcp 1040 ------- 0 0.0 4.0 21 32
r 37.036256 2 1 ack 40 ------- 0 4.0 0.0 19 58
+ 37.036256 1 0 ack 40 ------- 0 4.0 0.0 19 58
- 37.036256 1 0 ack 40 ------- 0 4.0 0.0 19 58
r 37.086362 1 0 ack 40 ------- 0 4.0 0.0 19 58
+ 37.086362 0 1 tcp 1040 ------- 0 0.0 4.0 39 59
- 37.086362 0 1 tcp 1040 ------- 0 0.0 4.0 39 59
r 37.139136 0 1 tcp 1040 ------- 0 0.0 4.0 39 59
+ 37.139136 1 2 tcp 1040 ------- 0 0.0 4.0 39 59
r 37.409485 2 3 tcp 1040 ------- 0 0.0 4.0 20 30
+ 37.409485 3 4 tcp 1040 ------- 0 0.0 4.0 20 30
- 37.409485 3 4 tcp 1040 ------- 0 0.0 4.0 20 30
r 37.422259 3 4 tcp 1040 ------- 0 0.0 4.0 20 30
+ 37.422259 4 3 ack 40 ------- 0 4.0 0.0 20 60
- 37.422259 4 3 ack 40 ------- 0 4.0 0.0 20 60
r 37.432365 4 3 ack 40 ------- 0 4.0 0.0 20 60
+ 37.432365 3 2 ack 40 ------- 0 4.0 0.0 20 60
- 37.432365 3 2 ack 40 ------- 0 4.0 0.0 20 60
- 37.921938 1 2 tcp 1040 ------- 0 0.0 4.0 23 35
r 37.990537 3 2 ack 40 ------- 0 4.0 0.0 20 60
+ 37.990537 2 1 ack 40 ------- 0 4.0 0.0 20 60
- 37.990537 2 1 ack 40 ------- 0 4.0 0.0 20 60
r 38.421938 1 2 tcp 1040 ------- 0 0.0 4.0 22 33
+ 38.421938 2 3 tcp 1040 ------- 0 0.0 4.0 22 33
- 38.421938 2 3 tcp 1040 ------- 0 0.0 4.0 22 33
r 38.548708 2 1 ack 40 ------- 0 4.0 0.0 20 60
+ 38.548708 1 0 ack 40 ------- 0 4.0 0.0 20 60
- 38.548708 1 0 ack 40 ------- 0 4.0 0.0 20 60
r 38.598815 1 0 ack 40 ------- 0 4.0 0.0 20 60
+ 38.598815 0 1 tcp 1040 ------- 0 0.0 4.0 40 61
- 38.598815 0 1 tcp 1040 ------- 0 0.0 4.0 40 61
r 38.651588 0 1 tcp 1040 ------- 0 0.0 4.0 40 61
+ 38.651588 1 2 tcp 1040 ------- 0 0.0 4.0 40 61
r 38.921938 2 3 tcp 1040 ------- 0 0.0 4.0 21 32
+ 38.921938 3 4 tcp 1040 ------- 0 0.0 4.0 21 32
- 38.921938 3 4 tcp 1040 ------- 0 0.0 4.0 21 32
r 38.934711 3 4 tcp 1040 ------- 0 0.0 4.0 21 32
+ 38.934711 4 3 ack 40 ------- 0 4.0 0.0 21 62
- 38.934711 4 3 ack 40 ------- 0 4.0 0.0 21 62
r 38.944818 4 3 ack 40 ------- 0 4.0 0.0 21 62
+ 38.944818 3 2 ack 40 ------- 0 4.0 0.0 21 62
- 38.944818 3 2 ack 40 ------- 0 4.0 0.0 21 62
- 39.43439 1 2 tcp 1040 ------- 0 0.0 4.0 24 36
r 39.502989 3 2 ack 40 ------- 0 4.0 0.0 21 62
+ 39.502989 2 1 ack 40 ------- 0 4.0 0.0 21 62
- 39.502989 2 1 ack 40 ------- 0 4.0 0.0 21 62
r 39.93439 1 2 tcp 1040 ------- 0 0.0 4.0 23 35
+ 39.93439 2 3 tcp 1040 ------- 0 0.0 4.0 23 35
- 39.93439 2 3 tcp 1040 ------- 0 0.0 4.0 23 35
r 40.06116 2 1 ack 40 ------- 0 4.0 0.0 21 62
+ 40.06116 1 0 ack 40 ------- 0 4.0 0.0 21 62
- 40.06116 1 0 ack 40 ------- 0 4.0 0.0 21 62
r 40.111267 1 0 ack 40 ------- 0 4.0 0.0 21 62
+ 40.111267 0 1 tcp 1040 ------- 0 0.0 4.0 41 63
- 40.111267 0 1 tcp 1040 ------- 0 0.0 4.0 41 63
r 40.16404 0 1 tcp 1040 ------- 0 0.0 4.0 41 63
+ 40.16404 1 2 tcp 1040 ------- 0 0.0 4.0 41 63
r 40.43439 2 3 tcp 1040 ------- 0 0.0 4.0 22 33
+ 40.43439 3 4 tcp 1040 ------- 0 0.0 4.0 22 33
- 40.43439 3 4 tcp 1040 ------- 0 0.0 4.0 22 33
r 40.447163 3 4 tcp 1040 ------- 0 0.0 4.0 22 33
+ 40.447163 4 3 ack 40 ------- 0 4.0 0.0 22 64
- 40.447163 4 3 ack 40 ------- 0 4.0 0.0 22 64
r 40.45727 4 3 ack 40 ------- 0 4.0 0.0 22 64
+ 40.45727 3 2 ack 40 ------- 0 4.0 0.0 22 64
- 40.45727 3 2 ack 40 ------- 0 4.0 0.0 22 64
- 40.946842 1 2 tcp 1040 ------- 0 0.0 4.0 25 38
r 41.015441 3 2 ack 40 ------- 0 4.0 0.0 22 64
+ 41.015441 2 1 ack 40 ------- 0 4.0 0.0 22 64
- 41.015441 2 1 ack 40 ------- 0 4.0 0.0 22 64
r 41.446842 1 2 tcp 1040 ------- 0 0.0 4.0 24 36
+ 41.446842 2 3 tcp 1040 ------- 0 0.0 4.0 24 36
- 41.446842 2 3 tcp 1040 ------- 0 0.0 4.0 24 36
r 41.573612 2 1 ack 40 ------- 0 4.0 0.0 22 64
+ 41.573612 1 0 ack 40 ------- 0 4.0 0.0 22 64