+ 0.1 0 4 ping 50000 ------- 0 0.0 5.0 -1 0
- 0.1 0 4 ping 50000 ------- 0 0.0 5.0 -1 0
+ 0.1 2 4 ping 30000 ------- 0 2.0 3.0 -1 1
- 0.1 2 4 ping 30000 ------- 0 2.0 3.0 -1 1
+ 0.2 0 4 ping 50000 ------- 0 0.0 5.0 -1 2
+ 0.2 2 4 ping 30000 ------- 0 2.0 3.0 -1 3
- 0.22 2 4 ping 30000 ------- 0 2.0 3.0 -1 3
r 0.23 2 4 ping 30000 ------- 0 2.0 3.0 -1 1
+ 0.23 4 3 ping 30000 ------- 0 2.0 3.0 -1 1
- 0.23 4 3 ping 30000 ------- 0 2.0 3.0 -1 1
+ 0.3 0 4 ping 50000 ------- 0 0.0 5.0 -1 4
+ 0.3 2 4 ping 30000 ------- 0 2.0 3.0 -1 5
- 0.3 0 4 ping 50000 ------- 0 0.0 5.0 -1 2
r 0.31 0 4 ping 50000 ------- 0 0.0 5.0 -1 0
+ 0.31 4 5 ping 50000 ------- 0 0.0 5.0 -1 0
- 0.31 4 5 ping 50000 ------- 0 0.0 5.0 -1 0
- 0.34 2 4 ping 30000 ------- 0 2.0 3.0 -1 5
r 0.35 2 4 ping 30000 ------- 0 2.0 3.0 -1 3
+ 0.35 4 3 ping 30000 ------- 0 2.0 3.0 -1 3
- 0.35 4 3 ping 30000 ------- 0 2.0 3.0 -1 3
r 0.36 4 3 ping 30000 ------- 0 2.0 3.0 -1 1
+ 0.36 3 4 ping 64 ------- 0 3.0 2.0 -1 6
- 0.36 3 4 ping 64 ------- 0 3.0 2.0 -1 6
r 0.370256 3 4 ping 64 ------- 0 3.0 2.0 -1 6
+ 0.370256 4 2 ping 64 ------- 0 3.0 2.0 -1 6
- 0.370256 4 2 ping 64 ------- 0 3.0 2.0 -1 6
r 0.380512 4 2 ping 64 ------- 0 3.0 2.0 -1 6
+ 0.4 0 4 ping 50000 ------- 0 0.0 5.0 -1 7
+ 0.4 2 4 ping 30000 ------- 0 2.0 3.0 -1 8
- 0.46 2 4 ping 30000 ------- 0 2.0 3.0 -1 8
r 0.47 2 4 ping 30000 ------- 0 2.0 3.0 -1 5
+ 0.47 4 3 ping 30000 ------- 0 2.0 3.0 -1 5
- 0.47 4 3 ping 30000 ------- 0 2.0 3.0 -1 5
r 0.48 4 3 ping 30000 ------- 0 2.0 3.0 -1 3
+ 0.48 3 4 ping 64 ------- 0 3.0 2.0 -1 9
- 0.48 3 4 ping 64 ------- 0 3.0 2.0 -1 9
r 0.490256 3 4 ping 64 ------- 0 3.0 2.0 -1 9
+ 0.490256 4 2 ping 64 ------- 0 3.0 2.0 -1 9
- 0.490256 4 2 ping 64 ------- 0 3.0 2.0 -1 9
+ 0.5 0 4 ping 50000 ------- 0 0.0 5.0 -1 10
+ 0.5 2 4 ping 30000 ------- 0 2.0 3.0 -1 11
- 0.5 0 4 ping 50000 ------- 0 0.0 5.0 -1 4
r 0.500512 4 2 ping 64 ------- 0 3.0 2.0 -1 9
r 0.51 0 4 ping 50000 ------- 0 0.0 5.0 -1 2
+ 0.51 4 5 ping 50000 ------- 0 0.0 5.0 -1 2
- 0.51 4 5 ping 50000 ------- 0 0.0 5.0 -1 2
r 0.52 4 5 ping 50000 ------- 0 0.0 5.0 -1 0
+ 0.52 5 4 ping 64 ------- 0 5.0 0.0 -1 12
- 0.52 5 4 ping 64 ------- 0 5.0 0.0 -1 12
r 0.530256 5 4 ping 64 ------- 0 5.0 0.0 -1 12
+ 0.530256 4 0 ping 64 ------- 0 5.0 0.0 -1 12
- 0.530256 4 0 ping 64 ------- 0 5.0 0.0 -1 12
r 0.540512 4 0 ping 64 ------- 0 5.0 0.0 -1 12
- 0.58 2 4 ping 30000 ------- 0 2.0 3.0 -1 11
r 0.59 2 4 ping 30000 ------- 0 2.0 3.0 -1 8
+ 0.59 4 3 ping 30000 ------- 0 2.0 3.0 -1 8
- 0.59 4 3 ping 30000 ------- 0 2.0 3.0 -1 8
+ 0.6 0 4 ping 50000 ------- 0 0.0 5.0 -1 13
+ 0.6 2 4 ping 30000 ------- 0 2.0 3.0 -1 14
r 0.6 4 3 ping 30000 ------- 0 2.0 3.0 -1 5
+ 0.6 3 4 ping 64 ------- 0 3.0 2.0 -1 15
- 0.6 3 4 ping 64 ------- 0 3.0 2.0 -1 15
r 0.610256 3 4 ping 64 ------- 0 3.0 2.0 -1 15
+ 0.610256 4 2 ping 64 ------- 0 3.0 2.0 -1 15
- 0.610256 4 2 ping 64 ------- 0 3.0 2.0 -1 15
r 0.620512 4 2 ping 64 ------- 0 3.0 2.0 -1 15
- 0.7 0 4 ping 50000 ------- 0 0.0 5.0 -1 7
- 0.7 2 4 ping 30000 ------- 0 2.0 3.0 -1 14
+ 0.7 0 4 ping 50000 ------- 0 0.0 5.0 -1 16
+ 0.7 2 4 ping 30000 ------- 0 2.0 3.0 -1 17
r 0.71 0 4 ping 50000 ------- 0 0.0 5.0 -1 4
+ 0.71 4 5 ping 50000 ------- 0 0.0 5.0 -1 4
- 0.71 4 5 ping 50000 ------- 0 0.0 5.0 -1 4
r 0.71 2 4 ping 30000 ------- 0 2.0 3.0 -1 11
+ 0.71 4 3 ping 30000 ------- 0 2.0 3.0 -1 11
- 0.71 4 3 ping 30000 ------- 0 2.0 3.0 -1 11
r 0.72 4 5 ping 50000 ------- 0 0.0 5.0 -1 2
+ 0.72 5 4 ping 64 ------- 0 5.0 0.0 -1 18
- 0.72 5 4 ping 64 ------- 0 5.0 0.0 -1 18
r 0.72 4 3 ping 30000 ------- 0 2.0 3.0 -1 8
+ 0.72 3 4 ping 64 ------- 0 3.0 2.0 -1 19
- 0.72 3 4 ping 64 ------- 0 3.0 2.0 -1 19
r 0.730256 5 4 ping 64 ------- 0 5.0 0.0 -1 18
+ 0.730256 4 0 ping 64 ------- 0 5.0 0.0 -1 18
- 0.730256 4 0 ping 64 ------- 0 5.0 0.0 -1 18
r 0.730256 3 4 ping 64 ------- 0 3.0 2.0 -1 19
+ 0.730256 4 2 ping 64 ------- 0 3.0 2.0 -1 19
- 0.730256 4 2 ping 64 ------- 0 3.0 2.0 -1 19
r 0.740512 4 0 ping 64 ------- 0 5.0 0.0 -1 18
r 0.740512 4 2 ping 64 ------- 0 3.0 2.0 -1 19
+ 0.8 0 4 ping 50000 ------- 0 0.0 5.0 -1 20
+ 0.8 2 4 ping 30000 ------- 0 2.0 3.0 -1 21
- 0.82 2 4 ping 30000 ------- 0 2.0 3.0 -1 17
r 0.83 2 4 ping 30000 ------- 0 2.0 3.0 -1 14
+ 0.83 4 3 ping 30000 ------- 0 2.0 3.0 -1 14
- 0.83 4 3 ping 30000 ------- 0 2.0 3.0 -1 14
r 0.84 4 3 ping 30000 ------- 0 2.0 3.0 -1 11
+ 0.84 3 4 ping 64 ------- 0 3.0 2.0 -1 22
- 0.84 3 4 ping 64 ------- 0 3.0 2.0 -1 22
r 0.850256 3 4 ping 64 ------- 0 3.0 2.0 -1 22
+ 0.850256 4 2 ping 64 ------- 0 3.0 2.0 -1 22
- 0.850256 4 2 ping 64 ------- 0 3.0 2.0 -1 22
r 0.860512 4 2 ping 64 ------- 0 3.0 2.0 -1 22
- 0.9 0 4 ping 50000 ------- 0 0.0 5.0 -1 10
+ 0.9 0 4 ping 50000 ------- 0 0.0 5.0 -1 23
+ 0.9 2 4 ping 30000 ------- 0 2.0 3.0 -1 24
r 0.91 0 4 ping 50000 ------- 0 0.0 5.0 -1 7
+ 0.91 4 5 ping 50000 ------- 0 0.0 5.0 -1 7
- 0.91 4 5 ping 50000 ------- 0 0.0 5.0 -1 7
r 0.92 4 5 ping 50000 ------- 0 0.0 5.0 -1 4
+ 0.92 5 4 ping 64 ------- 0 5.0 0.0 -1 25
- 0.92 5 4 ping 64 ------- 0 5.0 0.0 -1 25
r 0.930256 5 4 ping 64 ------- 0 5.0 0.0 -1 25
+ 0.930256 4 0 ping 64 ------- 0 5.0 0.0 -1 25
- 0.930256 4 0 ping 64 ------- 0 5.0 0.0 -1 25
- 0.94 2 4 ping 30000 ------- 0 2.0 3.0 -1 21
r 0.940512 4 0 ping 64 ------- 0 5.0 0.0 -1 25
r 0.95 2 4 ping 30000 ------- 0 2.0 3.0 -1 17
+ 0.95 4 3 ping 30000 ------- 0 2.0 3.0 -1 17
- 0.95 4 3 ping 30000 ------- 0 2.0 3.0 -1 17
r 0.96 4 3 ping 30000 ------- 0 2.0 3.0 -1 14
+ 0.96 3 4 ping 64 ------- 0 3.0 2.0 -1 26
- 0.96 3 4 ping 64 ------- 0 3.0 2.0 -1 26
r 0.970256 3 4 ping 64 ------- 0 3.0 2.0 -1 26
+ 0.970256 4 2 ping 64 ------- 0 3.0 2.0 -1 26
- 0.970256 4 2 ping 64 ------- 0 3.0 2.0 -1 26
r 0.980512 4 2 ping 64 ------- 0 3.0 2.0 -1 26
+ 1 0 4 ping 50000 ------- 0 0.0 5.0 -1 27
+ 1 2 4 ping 30000 ------- 0 2.0 3.0 -1 28
- 1.06 2 4 ping 30000 ------- 0 2.0 3.0 -1 24
r 1.07 2 4 ping 30000 ------- 0 2.0 3.0 -1 21
+ 1.07 4 3 ping 30000 ------- 0 2.0 3.0 -1 21
- 1.07 4 3 ping 30000 ------- 0 2.0 3.0 -1 21
r 1.08 4 3 ping 30000 ------- 0 2.0 3.0 -1 17
+ 1.08 3 4 ping 64 ------- 0 3.0 2.0 -1 29
- 1.08 3 4 ping 64 ------- 0 3.0 2.0 -1 29
r 1.090256 3 4 ping 64 ------- 0 3.0 2.0 -1 29
+ 1.090256 4 2 ping 64 ------- 0 3.0 2.0 -1 29
- 1.090256 4 2 ping 64 ------- 0 3.0 2.0 -1 29
- 1.1 0 4 ping 50000 ------- 0 0.0 5.0 -1 13
+ 1.1 0 4 ping 50000 ------- 0 0.0 5.0 -1 30
+ 1.1 2 4 ping 30000 ------- 0 2.0 3.0 -1 31
r 1.100512 4 2 ping 64 ------- 0 3.0 2.0 -1 29
r 1.11 0 4 ping 50000 ------- 0 0.0 5.0 -1 10
+ 1.11 4 5 ping 50000 ------- 0 0.0 5.0 -1 10
- 1.11 4 5 ping 50000 ------- 0 0.0 5.0 -1 10
r 1.12 4 5 ping 50000 ------- 0 0.0 5.0 -1 7
+ 1.12 5 4 ping 64 ------- 0 5.0 0.0 -1 32
- 1.12 5 4 ping 64 ------- 0 5.0 0.0 -1 32
r 1.130256 5 4 ping 64 ------- 0 5.0 0.0 -1 32
+ 1.130256 4 0 ping 64 ------- 0 5.0 0.0 -1 32
- 1.130256 4 0 ping 64 ------- 0 5.0 0.0 -1 32
r 1.140512 4 0 ping 64 ------- 0 5.0 0.0 -1 32
- 1.18 2 4 ping 30000 ------- 0 2.0 3.0 -1 28
r 1.19 2 4 ping 30000 ------- 0 2.0 3.0 -1 24
+ 1.19 4 3 ping 30000 ------- 0 2.0 3.0 -1 24
- 1.19 4 3 ping 30000 ------- 0 2.0 3.0 -1 24
r 1.2 4 3 ping 30000 ------- 0 2.0 3.0 -1 21
+ 1.2 3 4 ping 64 ------- 0 3.0 2.0 -1 33
- 1.2 3 4 ping 64 ------- 0 3.0 2.0 -1 33
+ 1.2 0 4 ping 50000 ------- 0 0.0 5.0 -1 34
+ 1.2 2 4 ping 30000 ------- 0 2.0 3.0 -1 35
r 1.210256 3 4 ping 64 ------- 0 3.0 2.0 -1 33
+ 1.210256 4 2 ping 64 ------- 0 3.0 2.0 -1 33
- 1.210256 4 2 ping 64 ------- 0 3.0 2.0 -1 33
r 1.220512 4 2 ping 64 ------- 0 3.0 2.0 -1 33
- 1.3 0 4 ping 50000 ------- 0 0.0 5.0 -1 16
+ 1.3 0 4 ping 50000 ------- 0 0.0 5.0 -1 36
+ 1.3 2 4 ping 30000 ------- 0 2.0 3.0 -1 37
- 1.3 2 4 ping 30000 ------- 0 2.0 3.0 -1 31
r 1.31 0 4 ping 50000 ------- 0 0.0 5.0 -1 13
+ 1.31 4 5 ping 50000 ------- 0 0.0 5.0 -1 13
- 1.31 4 5 ping 50000 ------- 0 0.0 5.0 -1 13
r 1.31 2 4 ping 30000 ------- 0 2.0 3.0 -1 28
+ 1.31 4 3 ping 30000 ------- 0 2.0 3.0 -1 28
- 1.31 4 3 ping 30000 ------- 0 2.0 3.0 -1 28
r 1.32 4 5 ping 50000 ------- 0 0.0 5.0 -1 10
+ 1.32 5 4 ping 64 ------- 0 5.0 0.0 -1 38
- 1.32 5 4 ping 64 ------- 0 5.0 0.0 -1 38
r 1.32 4 3 ping 30000 ------- 0 2.0 3.0 -1 24
+ 1.32 3 4 ping 64 ------- 0 3.0 2.0 -1 39
- 1.32 3 4 ping 64 ------- 0 3.0 2.0 -1 39
r 1.330256 5 4 ping 64 ------- 0 5.0 0.0 -1 38
+ 1.330256 4 0 ping 64 ------- 0 5.0 0.0 -1 38
- 1.330256 4 0 ping 64 ------- 0 5.0 0.0 -1 38
r 1.330256 3 4 ping 64 ------- 0 3.0 2.0 -1 39
+ 1.330256 4 2 ping 64 ------- 0 3.0 2.0 -1 39
- 1.330256 4 2 ping 64 ------- 0 3.0 2.0 -1 39
r 1.340512 4 0 ping 64 ------- 0 5.0 0.0 -1 38
r 1.340512 4 2 ping 64 ------- 0 3.0 2.0 -1 39
+ 1.4 0 4 ping 50000 ------- 0 0.0 5.0 -1 40
+ 1.4 2 4 ping 30000 ------- 0 2.0 3.0 -1 41
- 1.42 2 4 ping 30000 ------- 0 2.0 3.0 -1 35
r 1.43 2 4 ping 30000 ------- 0 2.0 3.0 -1 31
+ 1.43 4 3 ping 30000 ------- 0 2.0 3.0 -1 31
- 1.43 4 3 ping 30000 ------- 0 2.0 3.0 -1 31
r 1.44 4 3 ping 30000 ------- 0 2.0 3.0 -1 28
+ 1.44 3 4 ping 64 ------- 0 3.0 2.0 -1 42
- 1.44 3 4 ping 64 ------- 0 3.0 2.0 -1 42
r 1.450256 3 4 ping 64 ------- 0 3.0 2.0 -1 42
+ 1.450256 4 2 ping 64 ------- 0 3.0 2.0 -1 42
- 1.450256 4 2 ping 64 ------- 0 3.0 2.0 -1 42
r 1.460512 4 2 ping 64 ------- 0 3.0 2.0 -1 42
- 1.5 0 4 ping 50000 ------- 0 0.0 5.0 -1 20
+ 1.5 0 4 ping 50000 ------- 0 0.0 5.0 -1 43
+ 1.5 2 4 ping 30000 ------- 0 2.0 3.0 -1 44
r 1.51 0 4 ping 50000 ------- 0 0.0 5.0 -1 16
+ 1.51 4 5 ping 50000 ------- 0 0.0 5.0 -1 16
- 1.51 4 5 ping 50000 ------- 0 0.0 5.0 -1 16
r 1.52 4 5 ping 50000 ------- 0 0.0 5.0 -1 13
+ 1.52 5 4 ping 64 ------- 0 5.0 0.0 -1 45
- 1.52 5 4 ping 64 ------- 0 5.0 0.0 -1 45
r 1.530256 5 4 ping 64 ------- 0 5.0 0.0 -1 45
+ 1.530256 4 0 ping 64 ------- 0 5.0 0.0 -1 45
- 1.530256 4 0 ping 64 ------- 0 5.0 0.0 -1 45
- 1.54 2 4 ping 30000 ------- 0 2.0 3.0 -1 37
r 1.540512 4 0 ping 64 ------- 0 5.0 0.0 -1 45
r 1.55 2 4 ping 30000 ------- 0 2.0 3.0 -1 35
+ 1.55 4 3 ping 30000 ------- 0 2.0 3.0 -1 35
- 1.55 4 3 ping 30000 ------- 0 2.0 3.0 -1 35
r 1.56 4 3 ping 30000 ------- 0 2.0 3.0 -1 31
+ 1.56 3 4 ping 64 ------- 0 3.0 2.0 -1 46
- 1.56 3 4 ping 64 ------- 0 3.0 2.0 -1 46
r 1.570256 3 4 ping 64 ------- 0 3.0 2.0 -1 46
+ 1.570256 4 2 ping 64 ------- 0 3.0 2.0 -1 46
- 1.570256 4 2 ping 64 ------- 0 3.0 2.0 -1 46
r 1.580512 4 2 ping 64 ------- 0 3.0 2.0 -1 46
+ 1.6 0 4 ping 50000 ------- 0 0.0 5.0 -1 47
+ 1.6 2 4 ping 30000 ------- 0 2.0 3.0 -1 48
- 1.66 2 4 ping 30000 ------- 0 2.0 3.0 -1 41
r 1.67 2 4 ping 30000 ------- 0 2.0 3.0 -1 37
+ 1.67 4 3 ping 30000 ------- 0 2.0 3.0 -1 37
- 1.67 4 3 ping 30000 ------- 0 2.0 3.0 -1 37
r 1.68 4 3 ping 30000 ------- 0 2.0 3.0 -1 35
+ 1.68 3 4 ping 64 ------- 0 3.0 2.0 -1 49
- 1.68 3 4 ping 64 ------- 0 3.0 2.0 -1 49
r 1.690256 3 4 ping 64 ------- 0 3.0 2.0 -1 49
+ 1.690256 4 2 ping 64 ------- 0 3.0 2.0 -1 49
- 1.690256 4 2 ping 64 ------- 0 3.0 2.0 -1 49
- 1.7 0 4 ping 50000 ------- 0 0.0 5.0 -1 23
+ 1.7 0 4 ping 50000 ------- 0 0.0 5.0 -1 50
+ 1.7 2 4 ping 30000 ------- 0 2.0 3.0 -1 51
r 1.700512 4 2 ping 64 ------- 0 3.0 2.0 -1 49
r 1.71 0 4 ping 50000 ------- 0 0.0 5.0 -1 20
+ 1.71 4 5 ping 50000 ------- 0 0.0 5.0 -1 20
- 1.71 4 5 ping 50000 ------- 0 0.0 5.0 -1 20
r 1.72 4 5 ping 50000 ------- 0 0.0 5.0 -1 16
+ 1.72 5 4 ping 64 ------- 0 5.0 0.0 -1 52
- 1.72 5 4 ping 64 ------- 0 5.0 0.0 -1 52
r 1.730256 5 4 ping 64 ------- 0 5.0 0.0 -1 52
+ 1.730256 4 0 ping 64 ------- 0 5.0 0.0 -1 52
- 1.730256 4 0 ping 64 ------- 0 5.0 0.0 -1 52
r 1.740512 4 0 ping 64 ------- 0 5.0 0.0 -1 52
- 1.78 2 4 ping 30000 ------- 0 2.0 3.0 -1 44
r 1.79 2 4 ping 30000 ------- 0 2.0 3.0 -1 41
+ 1.79 4 3 ping 30000 ------- 0 2.0 3.0 -1 41
- 1.79 4 3 ping 30000 ------- 0 2.0 3.0 -1 41
+ 1.8 0 4 ping 50000 ------- 0 0.0 5.0 -1 53
+ 1.8 2 4 ping 30000 ------- 0 2.0 3.0 -1 54
r 1.8 4 3 ping 30000 ------- 0 2.0 3.0 -1 37
+ 1.8 3 4 ping 64 ------- 0 3.0 2.0 -1 55
- 1.8 3 4 ping 64 ------- 0 3.0 2.0 -1 55
r 1.810256 3 4 ping 64 ------- 0 3.0 2.0 -1 55
+ 1.810256 4 2 ping 64 ------- 0 3.0 2.0 -1 55
- 1.810256 4 2 ping 64 ------- 0 3.0 2.0 -1 55
r 1.820512 4 2 ping 64 ------- 0 3.0 2.0 -1 55
- 1.9 0 4 ping 50000 ------- 0 0.0 5.0 -1 27
+ 1.9 0 4 ping 50000 ------- 0 0.0 5.0 -1 56
+ 1.9 2 4 ping 30000 ------- 0 2.0 3.0 -1 57
- 1.9 2 4 ping 30000 ------- 0 2.0 3.0 -1 48
r 1.91 0 4 ping 50000 ------- 0 0.0 5.0 -1 23
+ 1.91 4 5 ping 50000 ------- 0 0.0 5.0 -1 23
- 1.91 4 5 ping 50000 ------- 0 0.0 5.0 -1 23
r 1.91 2 4 ping 30000 ------- 0 2.0 3.0 -1 44
+ 1.91 4 3 ping 30000 ------- 0 2.0 3.0 -1 44
- 1.91 4 3 ping 30000 ------- 0 2.0 3.0 -1 44
r 1.92 4 5 ping 50000 ------- 0 0.0 5.0 -1 20
+ 1.92 5 4 ping 64 ------- 0 5.0 0.0 -1 58
- 1.92 5 4 ping 64 ------- 0 5.0 0.0 -1 58
r 1.92 4 3 ping 30000 ------- 0 2.0 3.0 -1 41
+ 1.92 3 4 ping 64 ------- 0 3.0 2.0 -1 59
- 1.92 3 4 ping 64 ------- 0 3.0 2.0 -1 59
r 1.930256 5 4 ping 64 ------- 0 5.0 0.0 -1 58
+ 1.930256 4 0 ping 64 ------- 0 5.0 0.0 -1 58
- 1.930256 4 0 ping 64 ------- 0 5.0 0.0 -1 58
r 1.930256 3 4 ping 64 ------- 0 3.0 2.0 -1 59
+ 1.930256 4 2 ping 64 ------- 0 3.0 2.0 -1 59
- 1.930256 4 2 ping 64 ------- 0 3.0 2.0 -1 59
r 1.940512 4 0 ping 64 ------- 0 5.0 0.0 -1 58
r 1.940512 4 2 ping 64 ------- 0 3.0 2.0 -1 59
+ 2 0 4 ping 50000 ------- 0 0.0 5.0 -1 60
+ 2 2 4 ping 30000 ------- 0 2.0 3.0 -1 61
- 2.02 2 4 ping 30000 ------- 0 2.0 3.0 -1 51
r 2.03 2 4 ping 30000 ------- 0 2.0 3.0 -1 48
+ 2.03 4 3 ping 30000 ------- 0 2.0 3.0 -1 48
- 2.03 4 3 ping 30000 ------- 0 2.0 3.0 -1 48
r 2.04 4 3 ping 30000 ------- 0 2.0 3.0 -1 44
+ 2.04 3 4 ping 64 ------- 0 3.0 2.0 -1 62
- 2.04 3 4 ping 64 ------- 0 3.0 2.0 -1 62
r 2.050256 3 4 ping 64 ------- 0 3.0 2.0 -1 62
+ 2.050256 4 2 ping 64 ------- 0 3.0 2.0 -1 62
- 2.050256 4 2 ping 64 ------- 0 3.0 2.0 -1 62
r 2.060512 4 2 ping 64 ------- 0 3.0 2.0 -1 62
- 2.1 0 4 ping 50000 ------- 0 0.0 5.0 -1 30
+ 2.1 0 4 ping 50000 ------- 0 0.0 5.0 -1 63
+ 2.1 2 4 ping 30000 ------- 0 2.0 3.0 -1 64
r 2.11 0 4 ping 50000 ------- 0 0.0 5.0 -1 27
+ 2.11 4 5 ping 50000 ------- 0 0.0 5.0 -1 27
- 2.11 4 5 ping 50000 ------- 0 0.0 5.0 -1 27
r 2.12 4 5 ping 50000 ------- 0 0.0 5.0 -1 23
+ 2.12 5 4 ping 64 ------- 0 5.0 0.0 -1 65
- 2.12 5 4 ping 64 ------- 0 5.0 0.0 -1 65
r 2.130256 5 4 ping 64 ------- 0 5.0 0.0 -1 65
+ 2.130256 4 0 ping 64 ------- 0 5.0 0.0 -1 65
- 2.130256 4 0 ping 64 ------- 0 5.0 0.0 -1 65
- 2.14 2 4 ping 30000 ------- 0 2.0 3.0 -1 54
r 2.140512 4 0 ping 64 ------- 0 5.0 0.0 -1 65
r 2.15 2 4 ping 30000 ------- 0 2.0 3.0 -1 51
+ 2.15 4 3 ping 30000 ------- 0 2.0 3.0 -1 51
- 2.15 4 3 ping 30000 ------- 0 2.0 3.0 -1 51
r 2.16 4 3 ping 30000 ------- 0 2.0 3.0 -1 48
+ 2.16 3 4 ping 64 ------- 0 3.0 2.0 -1 66
- 2.16 3 4 ping 64 ------- 0 3.0 2.0 -1 66
r 2.170256 3 4 ping 64 ------- 0 3.0 2.0 -1 66
+ 2.170256 4 2 ping 64 ------- 0 3.0 2.0 -1 66
- 2.170256 4 2 ping 64 ------- 0 3.0 2.0 -1 66
r 2.180512 4 2 ping 64 ------- 0 3.0 2.0 -1 66
+ 2.2 0 4 ping 50000 ------- 0 0.0 5.0 -1 67
+ 2.2 2 4 ping 30000 ------- 0 2.0 3.0 -1 68
- 2.26 2 4 ping 30000 ------- 0 2.0 3.0 -1 57
r 2.27 2 4 ping 30000 ------- 0 2.0 3.0 -1 54
+ 2.27 4 3 ping 30000 ------- 0 2.0 3.0 -1 54
- 2.27 4 3 ping 30000 ------- 0 2.0 3.0 -1 54
r 2.28 4 3 ping 30000 ------- 0 2.0 3.0 -1 51
+ 2.28 3 4 ping 64 ------- 0 3.0 2.0 -1 69
- 2.28 3 4 ping 64 ------- 0 3.0 2.0 -1 69
r 2.290256 3 4 ping 64 ------- 0 3.0 2.0 -1 69
+ 2.290256 4 2 ping 64 ------- 0 3.0 2.0 -1 69
- 2.290256 4 2 ping 64 ------- 0 3.0 2.0 -1 69
- 2.3 0 4 ping 50000 ------- 0 0.0 5.0 -1 34
+ 2.3 0 4 ping 50000 ------- 0 0.0 5.0 -1 70
+ 2.3 2 4 ping 30000 ------- 0 2.0 3.0 -1 71
r 2.300512 4 2 ping 64 ------- 0 3.0 2.0 -1 69
r 2.31 0 4 ping 50000 ------- 0 0.0 5.0 -1 30
+ 2.31 4 5 ping 50000 ------- 0 0.0 5.0 -1 30
- 2.31 4 5 ping 50000 ------- 0 0.0 5.0 -1 30
r 2.32 4 5 ping 50000 ------- 0 0.0 5.0 -1 27
+ 2.32 5 4 ping 64 ------- 0 5.0 0.0 -1 72
- 2.32 5 4 ping 64 ------- 0 5.0 0.0 -1 72
r 2.330256 5 4 ping 64 ------- 0 5.0 0.0 -1 72
+ 2.330256 4 0 ping 64 ------- 0 5.0 0.0 -1 72
- 2.330256 4 0 ping 64 ------- 0 5.0 0.0 -1 72
r 2.340512 4 0 ping 64 ------- 0 5.0 0.0 -1 72
- 2.38 2 4 ping 30000 ------- 0 2.0 3.0 -1 61
r 2.39 2 4 ping 30000 ------- 0 2.0 3.0 -1 57
+ 2.39 4 3 ping 30000 ------- 0 2.0 3.0 -1 57
- 2.39 4 3 ping 30000 ------- 0 2.0 3.0 -1 57
+ 2.4 0 4 ping 50000 ------- 0 0.0 5.0 -1 73
+ 2.4 2 4 ping 30000 ------- 0 2.0 3.0 -1 74
r 2.4 4 3 ping 30000 ------- 0 2.0 3.0 -1 54
+ 2.4 3 4 ping 64 ------- 0 3.0 2.0 -1 75
- 2.4 3 4 ping 64 ------- 0 3.0 2.0 -1 75
r 2.410256 3 4 ping 64 ------- 0 3.0 2.0 -1 75
+ 2.410256 4 2 ping 64 ------- 0 3.0 2.0 -1 75
- 2.410256 4 2 ping 64 ------- 0 3.0 2.0 -1 75
r 2.420512 4 2 ping 64 ------- 0 3.0 2.0 -1 75
- 2.5 0 4 ping 50000 ------- 0 0.0 5.0 -1 36
+ 2.5 0 4 ping 50000 ------- 0 0.0 5.0 -1 76
+ 2.5 2 4 ping 30000 ------- 0 2.0 3.0 -1 77
- 2.5 2 4 ping 30000 ------- 0 2.0 3.0 -1 64
r 2.51 0 4 ping 50000 ------- 0 0.0 5.0 -1 34
+ 2.51 4 5 ping 50000 ------- 0 0.0 5.0 -1 34
- 2.51 4 5 ping 50000 ------- 0 0.0 5.0 -1 34
r 2.51 2 4 ping 30000 ------- 0 2.0 3.0 -1 61
+ 2.51 4 3 ping 30000 ------- 0 2.0 3.0 -1 61
- 2.51 4 3 ping 30000 ------- 0 2.0 3.0 -1 61
r 2.52 4 5 ping 50000 ------- 0 0.0 5.0 -1 30
+ 2.52 5 4 ping 64 ------- 0 5.0 0.0 -1 78
- 2.52 5 4 ping 64 ------- 0 5.0 0.0 -1 78
r 2.52 4 3 ping 30000 ------- 0 2.0 3.0 -1 57
+ 2.52 3 4 ping 64 ------- 0 3.0 2.0 -1 79
- 2.52 3 4 ping 64 ------- 0 3.0 2.0 -1 79
r 2.530256 5 4 ping 64 ------- 0 5.0 0.0 -1 78
+ 2.530256 4 0 ping 64 ------- 0 5.0 0.0 -1 78
- 2.530256 4 0 ping 64 ------- 0 5.0 0.0 -1 78
r 2.530256 3 4 ping 64 ------- 0 3.0 2.0 -1 79
+ 2.530256 4 2 ping 64 ------- 0 3.0 2.0 -1 79
- 2.530256 4 2 ping 64 ------- 0 3.0 2.0 -1 79
r 2.540512 4 0 ping 64 ------- 0 5.0 0.0 -1 78
r 2.540512 4 2 ping 64 ------- 0 3.0 2.0 -1 79
+ 2.6 0 4 ping 50000 ------- 0 0.0 5.0 -1 80
+ 2.6 2 4 ping 30000 ------- 0 2.0 3.0 -1 81
- 2.62 2 4 ping 30000 ------- 0 2.0 3.0 -1 68
r 2.63 2 4 ping 30000 ------- 0 2.0 3.0 -1 64
+ 2.63 4 3 ping 30000 ------- 0 2.0 3.0 -1 64
- 2.63 4 3 ping 30000 ------- 0 2.0 3.0 -1 64
r 2.64 4 3 ping 30000 ------- 0 2.0 3.0 -1 61
+ 2.64 3 4 ping 64 ------- 0 3.0 2.0 -1 82
- 2.64 3 4 ping 64 ------- 0 3.0 2.0 -1 82
r 2.650256 3 4 ping 64 ------- 0 3.0 2.0 -1 82
+ 2.650256 4 2 ping 64 ------- 0 3.0 2.0 -1 82
- 2.650256 4 2 ping 64 ------- 0 3.0 2.0 -1 82
r 2.660512 4 2 ping 64 ------- 0 3.0 2.0 -1 82
+ 2.7 0 4 ping 50000 ------- 0 0.0 5.0 -1 83
+ 2.7 2 4 ping 30000 ------- 0 2.0 3.0 -1 84
- 2.7 0 4 ping 50000 ------- 0 0.0 5.0 -1 40
r 2.71 0 4 ping 50000 ------- 0 0.0 5.0 -1 36
+ 2.71 4 5 ping 50000 ------- 0 0.0 5.0 -1 36
- 2.71 4 5 ping 50000 ------- 0 0.0 5.0 -1 36
r 2.72 4 5 ping 50000 ------- 0 0.0 5.0 -1 34
+ 2.72 5 4 ping 64 ------- 0 5.0 0.0 -1 85
- 2.72 5 4 ping 64 ------- 0 5.0 0.0 -1 85
r 2.730256 5 4 ping 64 ------- 0 5.0 0.0 -1 85
+ 2.730256 4 0 ping 64 ------- 0 5.0 0.0 -1 85
- 2.730256 4 0 ping 64 ------- 0 5.0 0.0 -1 85
- 2.74 2 4 ping 30000 ------- 0 2.0 3.0 -1 71
r 2.740512 4 0 ping 64 ------- 0 5.0 0.0 -1 85
r 2.75 2 4 ping 30000 ------- 0 2.0 3.0 -1 68
+ 2.75 4 3 ping 30000 ------- 0 2.0 3.0 -1 68
- 2.75 4 3 ping 30000 ------- 0 2.0 3.0 -1 68
r 2.76 4 3 ping 30000 ------- 0 2.0 3.0 -1 64
+ 2.76 3 4 ping 64 ------- 0 3.0 2.0 -1 86
- 2.76 3 4 ping 64 ------- 0 3.0 2.0 -1 86
r 2.770256 3 4 ping 64 ------- 0 3.0 2.0 -1 86
+ 2.770256 4 2 ping 64 ------- 0 3.0 2.0 -1 86
- 2.770256 4 2 ping 64 ------- 0 3.0 2.0 -1 86
r 2.780512 4 2 ping 64 ------- 0 3.0 2.0 -1 86
+ 2.8 0 4 ping 50000 ------- 0 0.0 5.0 -1 87
+ 2.8 2 4 ping 30000 ------- 0 2.0 3.0 -1 88
- 2.86 2 4 ping 30000 ------- 0 2.0 3.0 -1 74
r 2.87 2 4 ping 30000 ------- 0 2.0 3.0 -1 71
+ 2.87 4 3 ping 30000 ------- 0 2.0 3.0 -1 71
- 2.87 4 3 ping 30000 ------- 0 2.0 3.0 -1 71
r 2.88 4 3 ping 30000 ------- 0 2.0 3.0 -1 68
+ 2.88 3 4 ping 64 ------- 0 3.0 2.0 -1 89
- 2.88 3 4 ping 64 ------- 0 3.0 2.0 -1 89
r 2.890256 3 4 ping 64 ------- 0 3.0 2.0 -1 89
+ 2.890256 4 2 ping 64 ------- 0 3.0 2.0 -1 89
- 2.890256 4 2 ping 64 ------- 0 3.0 2.0 -1 89
+ 2.9 0 4 ping 50000 ------- 0 0.0 5.0 -1 90
+ 2.9 2 4 ping 30000 ------- 0 2.0 3.0 -1 91
- 2.9 0 4 ping 50000 ------- 0 0.0 5.0 -1 43
r 2.900512 4 2 ping 64 ------- 0 3.0 2.0 -1 89
r 2.91 0 4 ping 50000 ------- 0 0.0 5.0 -1 40
+ 2.91 4 5 ping 50000 ------- 0 0.0 5.0 -1 40
- 2.91 4 5 ping 50000 ------- 0 0.0 5.0 -1 40
r 2.92 4 5 ping 50000 ------- 0 0.0 5.0 -1 36
+ 2.92 5 4 ping 64 ------- 0 5.0 0.0 -1 92
- 2.92 5 4 ping 64 ------- 0 5.0 0.0 -1 92
r 2.930256 5 4 ping 64 ------- 0 5.0 0.0 -1 92
+ 2.930256 4 0 ping 64 ------- 0 5.0 0.0 -1 92
- 2.930256 4 0 ping 64 ------- 0 5.0 0.0 -1 92
r 2.940512 4 0 ping 64 ------- 0 5.0 0.0 -1 92
- 2.98 2 4 ping 30000 ------- 0 2.0 3.0 -1 77
r 2.99 2 4 ping 30000 ------- 0 2.0 3.0 -1 74
+ 2.99 4 3 ping 30000 ------- 0 2.0 3.0 -1 74
- 2.99 4 3 ping 30000 ------- 0 2.0 3.0 -1 74
