h 0.1 0 6 tcp 40 ------- 0 0.0 5.0 0 0
+ 0.11 0 6 tcp 40 ------- 0 0.0 5.0 0 0
- 0.11 0 6 tcp 40 ------- 0 0.0 5.0 0 0
r 0.12026 6 4 tcp 40 ------- 0 0.0 5.0 0 0
+ 0.12026 4 5 tcp 40 ------- 0 0.0 5.0 0 0
- 0.12026 4 5 tcp 40 ------- 0 0.0 5.0 0 0
r 0.12158 4 5 tcp 40 ------- 0 0.0 5.0 0 0
+ 0.12158 5 4 ack 40 ------- 0 5.0 0.0 0 1
- 0.12158 5 4 ack 40 ------- 0 5.0 0.0 0 1
r 0.1229 5 4 ack 40 ------- 0 5.0 0.0 0 1
h 0.1229 4 6 ack 40 ------- 0 5.0 0.0 0 1
+ 0.1329 4 6 ack 40 ------- 0 5.0 0.0 0 1
- 0.1329 4 6 ack 40 ------- 0 5.0 0.0 0 1
r 0.14316 6 0 ack 40 ------- 0 5.0 0.0 0 1
h 0.14316 0 6 tcp 1040 ------- 0 0.0 5.0 1 2
h 0.14316 0 6 tcp 1040 ------- 0 0.0 5.0 2 3
+ 0.15316 0 6 tcp 1040 ------- 0 0.0 5.0 1 2
- 0.15316 0 6 tcp 1040 ------- 0 0.0 5.0 1 2
+ 0.15316 0 6 tcp 1040 ------- 0 0.0 5.0 2 3
- 0.157424 0 6 tcp 1040 ------- 0 0.0 5.0 2 3
r 0.16738 6 4 tcp 1040 ------- 0 0.0 5.0 1 2
+ 0.16738 4 5 tcp 1040 ------- 0 0.0 5.0 1 2
- 0.16738 4 5 tcp 1040 ------- 0 0.0 5.0 1 2
r 0.171644 6 4 tcp 1040 ------- 0 0.0 5.0 2 3
+ 0.171644 4 5 tcp 1040 ------- 0 0.0 5.0 2 3
- 0.1757 4 5 tcp 1040 ------- 0 0.0 5.0 2 3
r 0.1767 4 5 tcp 1040 ------- 0 0.0 5.0 1 2
r 0.18502 4 5 tcp 1040 ------- 0 0.0 5.0 2 3
+ 0.18502 5 4 ack 40 ------- 0 5.0 0.0 2 4
- 0.18502 5 4 ack 40 ------- 0 5.0 0.0 2 4
r 0.18634 5 4 ack 40 ------- 0 5.0 0.0 2 4
h 0.18634 4 6 ack 40 ------- 0 5.0 0.0 2 4
+ 0.19634 4 6 ack 40 ------- 0 5.0 0.0 2 4
- 0.19634 4 6 ack 40 ------- 0 5.0 0.0 2 4
h 0.2 1 6 tcp 40 ------- 0 1.0 3.0 0 5
r 0.2066 6 0 ack 40 ------- 0 5.0 0.0 2 4
h 0.2066 0 6 tcp 1040 ------- 0 0.0 5.0 3 6
h 0.2066 0 6 tcp 1040 ------- 0 0.0 5.0 4 7
h 0.2066 0 6 tcp 1040 ------- 0 0.0 5.0 5 8
+ 0.21 1 6 tcp 40 ------- 0 1.0 3.0 0 5
- 0.21 1 6 tcp 40 ------- 0 1.0 3.0 0 5
+ 0.2166 0 6 tcp 1040 ------- 0 0.0 5.0 3 6
- 0.2166 0 6 tcp 1040 ------- 0 0.0 5.0 3 6
+ 0.2166 0 6 tcp 1040 ------- 0 0.0 5.0 4 7
+ 0.2166 0 6 tcp 1040 ------- 0 0.0 5.0 5 8
r 0.22026 6 2 tcp 40 ------- 0 1.0 3.0 0 5
+ 0.22026 2 3 tcp 40 ------- 0 1.0 3.0 0 5
- 0.22026 2 3 tcp 40 ------- 0 1.0 3.0 0 5
- 0.220864 0 6 tcp 1040 ------- 0 0.0 5.0 4 7
r 0.22158 2 3 tcp 40 ------- 0 1.0 3.0 0 5
+ 0.22158 3 2 ack 40 ------- 0 3.0 1.0 0 9
- 0.22158 3 2 ack 40 ------- 0 3.0 1.0 0 9
r 0.2229 3 2 ack 40 ------- 0 3.0 1.0 0 9
h 0.2229 2 6 ack 40 ------- 0 3.0 1.0 0 9
- 0.225128 0 6 tcp 1040 ------- 0 0.0 5.0 5 8
r 0.23082 6 4 tcp 1040 ------- 0 0.0 5.0 3 6
+ 0.23082 4 5 tcp 1040 ------- 0 0.0 5.0 3 6
- 0.23082 4 5 tcp 1040 ------- 0 0.0 5.0 3 6
+ 0.2329 2 6 ack 40 ------- 0 3.0 1.0 0 9
- 0.2329 2 6 ack 40 ------- 0 3.0 1.0 0 9
r 0.235084 6 4 tcp 1040 ------- 0 0.0 5.0 4 7
+ 0.235084 4 5 tcp 1040 ------- 0 0.0 5.0 4 7
- 0.23914 4 5 tcp 1040 ------- 0 0.0 5.0 4 7
r 0.239348 6 4 tcp 1040 ------- 0 0.0 5.0 5 8
+ 0.239348 4 5 tcp 1040 ------- 0 0.0 5.0 5 8
r 0.24014 4 5 tcp 1040 ------- 0 0.0 5.0 3 6
r 0.24316 6 1 ack 40 ------- 0 3.0 1.0 0 9
h 0.24316 1 6 tcp 1040 ------- 0 1.0 3.0 1 10
h 0.24316 1 6 tcp 1040 ------- 0 1.0 3.0 2 11
- 0.24746 4 5 tcp 1040 ------- 0 0.0 5.0 5 8
r 0.24846 4 5 tcp 1040 ------- 0 0.0 5.0 4 7
+ 0.24846 5 4 ack 40 ------- 0 5.0 0.0 4 12
- 0.24846 5 4 ack 40 ------- 0 5.0 0.0 4 12
r 0.24978 5 4 ack 40 ------- 0 5.0 0.0 4 12
h 0.24978 4 6 ack 40 ------- 0 5.0 0.0 4 12
+ 0.25316 1 6 tcp 1040 ------- 0 1.0 3.0 1 10
- 0.25316 1 6 tcp 1040 ------- 0 1.0 3.0 1 10
+ 0.25316 1 6 tcp 1040 ------- 0 1.0 3.0 2 11
r 0.25678 4 5 tcp 1040 ------- 0 0.0 5.0 5 8
- 0.257424 1 6 tcp 1040 ------- 0 1.0 3.0 2 11
+ 0.25978 4 6 ack 40 ------- 0 5.0 0.0 4 12
- 0.25978 4 6 ack 40 ------- 0 5.0 0.0 4 12
r 0.26738 6 2 tcp 1040 ------- 0 1.0 3.0 1 10
+ 0.26738 2 3 tcp 1040 ------- 0 1.0 3.0 1 10
- 0.26738 2 3 tcp 1040 ------- 0 1.0 3.0 1 10
r 0.271644 6 2 tcp 1040 ------- 0 1.0 3.0 2 11
+ 0.271644 2 3 tcp 1040 ------- 0 1.0 3.0 2 11
r 0.271952 6 0 ack 40 ------- 0 5.0 0.0 4 12
h 0.271952 0 6 tcp 1040 ------- 0 0.0 5.0 6 13
h 0.271952 0 6 tcp 1040 ------- 0 0.0 5.0 7 14
h 0.271952 0 6 tcp 1040 ------- 0 0.0 5.0 8 15
- 0.2757 2 3 tcp 1040 ------- 0 1.0 3.0 2 11
r 0.2767 2 3 tcp 1040 ------- 0 1.0 3.0 1 10
+ 0.2767 3 2 ack 40 ------- 0 3.0 1.0 1 16
- 0.2767 3 2 ack 40 ------- 0 3.0 1.0 1 16
r 0.27802 3 2 ack 40 ------- 0 3.0 1.0 1 16
h 0.27802 2 6 ack 40 ------- 0 3.0 1.0 1 16
+ 0.281952 0 6 tcp 1040 ------- 0 0.0 5.0 6 13
- 0.281952 0 6 tcp 1040 ------- 0 0.0 5.0 6 13
+ 0.281952 0 6 tcp 1040 ------- 0 0.0 5.0 7 14
+ 0.281952 0 6 tcp 1040 ------- 0 0.0 5.0 8 15
r 0.28502 2 3 tcp 1040 ------- 0 1.0 3.0 2 11
+ 0.28502 3 2 ack 40 ------- 0 3.0 1.0 2 17
- 0.28502 3 2 ack 40 ------- 0 3.0 1.0 2 17
- 0.286216 0 6 tcp 1040 ------- 0 0.0 5.0 7 14
r 0.28634 3 2 ack 40 ------- 0 3.0 1.0 2 17
h 0.28634 2 6 ack 40 ------- 0 3.0 1.0 2 17
+ 0.28802 2 6 ack 40 ------- 0 3.0 1.0 1 16
- 0.28802 2 6 ack 40 ------- 0 3.0 1.0 1 16
- 0.29048 0 6 tcp 1040 ------- 0 0.0 5.0 8 15
r 0.296172 6 4 tcp 1040 ------- 0 0.0 5.0 6 13
+ 0.296172 4 5 tcp 1040 ------- 0 0.0 5.0 6 13
- 0.296172 4 5 tcp 1040 ------- 0 0.0 5.0 6 13
+ 0.29634 2 6 ack 40 ------- 0 3.0 1.0 2 17
- 0.29634 2 6 ack 40 ------- 0 3.0 1.0 2 17
r 0.300436 6 4 tcp 1040 ------- 0 0.0 5.0 7 14
+ 0.300436 4 5 tcp 1040 ------- 0 0.0 5.0 7 14
- 0.304492 4 5 tcp 1040 ------- 0 0.0 5.0 7 14
r 0.304772 6 4 tcp 1040 ------- 0 0.0 5.0 8 15
+ 0.304772 4 5 tcp 1040 ------- 0 0.0 5.0 8 15
r 0.30508 6 1 ack 40 ------- 0 3.0 1.0 1 16
h 0.30508 1 6 tcp 1040 ------- 0 1.0 3.0 3 18
h 0.30508 1 6 tcp 1040 ------- 0 1.0 3.0 4 19
r 0.305492 4 5 tcp 1040 ------- 0 0.0 5.0 6 13
+ 0.305492 5 4 ack 40 ------- 0 5.0 0.0 6 20
- 0.305492 5 4 ack 40 ------- 0 5.0 0.0 6 20
r 0.3066 6 1 ack 40 ------- 0 3.0 1.0 2 17
h 0.3066 1 6 tcp 1040 ------- 0 1.0 3.0 5 21
h 0.3066 1 6 tcp 1040 ------- 0 1.0 3.0 6 22
r 0.306812 5 4 ack 40 ------- 0 5.0 0.0 6 20
h 0.306812 4 6 ack 40 ------- 0 5.0 0.0 6 20
- 0.312812 4 5 tcp 1040 ------- 0 0.0 5.0 8 15
r 0.313812 4 5 tcp 1040 ------- 0 0.0 5.0 7 14
+ 0.31508 1 6 tcp 1040 ------- 0 1.0 3.0 3 18
- 0.31508 1 6 tcp 1040 ------- 0 1.0 3.0 3 18
+ 0.31508 1 6 tcp 1040 ------- 0 1.0 3.0 4 19
+ 0.3166 1 6 tcp 1040 ------- 0 1.0 3.0 5 21
+ 0.3166 1 6 tcp 1040 ------- 0 1.0 3.0 6 22
+ 0.316812 4 6 ack 40 ------- 0 5.0 0.0 6 20
- 0.316812 4 6 ack 40 ------- 0 5.0 0.0 6 20
- 0.319344 1 6 tcp 1040 ------- 0 1.0 3.0 4 19
r 0.322132 4 5 tcp 1040 ------- 0 0.0 5.0 8 15
+ 0.322132 5 4 ack 40 ------- 0 5.0 0.0 8 23
- 0.322132 5 4 ack 40 ------- 0 5.0 0.0 8 23
r 0.323452 5 4 ack 40 ------- 0 5.0 0.0 8 23
h 0.323452 4 6 ack 40 ------- 0 5.0 0.0 8 23
- 0.324312 1 6 tcp 1040 ------- 0 1.0 3.0 5 21
- 0.328576 1 6 tcp 1040 ------- 0 1.0 3.0 6 22
r 0.3293 6 2 tcp 1040 ------- 0 1.0 3.0 3 18
+ 0.3293 2 3 tcp 1040 ------- 0 1.0 3.0 3 18
- 0.3293 2 3 tcp 1040 ------- 0 1.0 3.0 3 18
r 0.33 6 0 ack 40 ------- 0 5.0 0.0 6 20
h 0.33 0 6 tcp 1040 ------- 0 0.0 5.0 9 24
h 0.33 0 6 tcp 1040 ------- 0 0.0 5.0 10 25
h 0.33 0 6 tcp 1040 ------- 0 0.0 5.0 11 26
+ 0.333452 4 6 ack 40 ------- 0 5.0 0.0 8 23
- 0.333452 4 6 ack 40 ------- 0 5.0 0.0 8 23
r 0.334268 6 2 tcp 1040 ------- 0 1.0 3.0 4 19
+ 0.334268 2 3 tcp 1040 ------- 0 1.0 3.0 4 19
- 0.33762 2 3 tcp 1040 ------- 0 1.0 3.0 4 19
r 0.338532 6 2 tcp 1040 ------- 0 1.0 3.0 5 21
+ 0.338532 2 3 tcp 1040 ------- 0 1.0 3.0 5 21
r 0.33862 2 3 tcp 1040 ------- 0 1.0 3.0 3 18
+ 0.33862 3 2 ack 40 ------- 0 3.0 1.0 3 27
- 0.33862 3 2 ack 40 ------- 0 3.0 1.0 3 27
r 0.33994 3 2 ack 40 ------- 0 3.0 1.0 3 27
h 0.33994 2 6 ack 40 ------- 0 3.0 1.0 3 27
+ 0.34 0 6 tcp 1040 ------- 0 0.0 5.0 9 24
- 0.34 0 6 tcp 1040 ------- 0 0.0 5.0 9 24
+ 0.34 0 6 tcp 1040 ------- 0 0.0 5.0 10 25
+ 0.34 0 6 tcp 1040 ------- 0 0.0 5.0 11 26
r 0.342796 6 2 tcp 1040 ------- 0 1.0 3.0 6 22
+ 0.342796 2 3 tcp 1040 ------- 0 1.0 3.0 6 22
r 0.343712 6 0 ack 40 ------- 0 5.0 0.0 8 23
h 0.343712 0 6 tcp 1040 ------- 0 0.0 5.0 12 28
h 0.343712 0 6 tcp 1040 ------- 0 0.0 5.0 13 29
h 0.343712 0 6 tcp 1040 ------- 0 0.0 5.0 14 30
- 0.344264 0 6 tcp 1040 ------- 0 0.0 5.0 10 25
- 0.34594 2 3 tcp 1040 ------- 0 1.0 3.0 5 21
r 0.34694 2 3 tcp 1040 ------- 0 1.0 3.0 4 19
+ 0.34694 3 2 ack 40 ------- 0 3.0 1.0 4 31
- 0.34694 3 2 ack 40 ------- 0 3.0 1.0 4 31
r 0.34826 3 2 ack 40 ------- 0 3.0 1.0 4 31
h 0.34826 2 6 ack 40 ------- 0 3.0 1.0 4 31
- 0.348528 0 6 tcp 1040 ------- 0 0.0 5.0 11 26
+ 0.34994 2 6 ack 40 ------- 0 3.0 1.0 3 27
- 0.34994 2 6 ack 40 ------- 0 3.0 1.0 3 27
+ 0.353712 0 6 tcp 1040 ------- 0 0.0 5.0 12 28
- 0.353712 0 6 tcp 1040 ------- 0 0.0 5.0 12 28
+ 0.353712 0 6 tcp 1040 ------- 0 0.0 5.0 13 29
+ 0.353712 0 6 tcp 1040 ------- 0 0.0 5.0 14 30
r 0.35422 6 4 tcp 1040 ------- 0 0.0 5.0 9 24
+ 0.35422 4 5 tcp 1040 ------- 0 0.0 5.0 9 24
- 0.35422 4 5 tcp 1040 ------- 0 0.0 5.0 9 24
- 0.35426 2 3 tcp 1040 ------- 0 1.0 3.0 6 22
r 0.35526 2 3 tcp 1040 ------- 0 1.0 3.0 5 21
+ 0.35526 3 2 ack 40 ------- 0 3.0 1.0 5 32
- 0.35526 3 2 ack 40 ------- 0 3.0 1.0 5 32
r 0.35658 3 2 ack 40 ------- 0 3.0 1.0 5 32
h 0.35658 2 6 ack 40 ------- 0 3.0 1.0 5 32
- 0.357976 0 6 tcp 1040 ------- 0 0.0 5.0 13 29
+ 0.35826 2 6 ack 40 ------- 0 3.0 1.0 4 31
- 0.35826 2 6 ack 40 ------- 0 3.0 1.0 4 31
r 0.358484 6 4 tcp 1040 ------- 0 0.0 5.0 10 25
+ 0.358484 4 5 tcp 1040 ------- 0 0.0 5.0 10 25
- 0.36224 0 6 tcp 1040 ------- 0 0.0 5.0 14 30
- 0.36254 4 5 tcp 1040 ------- 0 0.0 5.0 10 25
r 0.362748 6 4 tcp 1040 ------- 0 0.0 5.0 11 26
+ 0.362748 4 5 tcp 1040 ------- 0 0.0 5.0 11 26
r 0.363056 6 1 ack 40 ------- 0 3.0 1.0 3 27
h 0.363056 1 6 tcp 1040 ------- 0 1.0 3.0 7 33
h 0.363056 1 6 tcp 1040 ------- 0 1.0 3.0 8 34
r 0.36354 4 5 tcp 1040 ------- 0 0.0 5.0 9 24
r 0.36358 2 3 tcp 1040 ------- 0 1.0 3.0 6 22
+ 0.36358 3 2 ack 40 ------- 0 3.0 1.0 6 35
- 0.36358 3 2 ack 40 ------- 0 3.0 1.0 6 35
r 0.3649 3 2 ack 40 ------- 0 3.0 1.0 6 35
h 0.3649 2 6 ack 40 ------- 0 3.0 1.0 6 35
+ 0.36658 2 6 ack 40 ------- 0 3.0 1.0 5 32
- 0.36658 2 6 ack 40 ------- 0 3.0 1.0 5 32
r 0.367932 6 4 tcp 1040 ------- 0 0.0 5.0 12 28
+ 0.367932 4 5 tcp 1040 ------- 0 0.0 5.0 12 28
- 0.37086 4 5 tcp 1040 ------- 0 0.0 5.0 11 26
r 0.37186 4 5 tcp 1040 ------- 0 0.0 5.0 10 25
+ 0.37186 5 4 ack 40 ------- 0 5.0 0.0 10 36
- 0.37186 5 4 ack 40 ------- 0 5.0 0.0 10 36
r 0.372196 6 4 tcp 1040 ------- 0 0.0 5.0 13 29
+ 0.372196 4 5 tcp 1040 ------- 0 0.0 5.0 13 29
r 0.372568 6 1 ack 40 ------- 0 3.0 1.0 4 31
h 0.372568 1 6 tcp 1040 ------- 0 1.0 3.0 9 37
h 0.372568 1 6 tcp 1040 ------- 0 1.0 3.0 10 38
+ 0.373056 1 6 tcp 1040 ------- 0 1.0 3.0 7 33
- 0.373056 1 6 tcp 1040 ------- 0 1.0 3.0 7 33
+ 0.373056 1 6 tcp 1040 ------- 0 1.0 3.0 8 34
r 0.37318 5 4 ack 40 ------- 0 5.0 0.0 10 36
h 0.37318 4 6 ack 40 ------- 0 5.0 0.0 10 36
+ 0.3749 2 6 ack 40 ------- 0 3.0 1.0 6 35
- 0.3749 2 6 ack 40 ------- 0 3.0 1.0 6 35
r 0.376836 6 4 tcp 1040 ------- 0 0.0 5.0 14 30
+ 0.376836 4 5 tcp 1040 ------- 0 0.0 5.0 14 30
d 0.376836 4 5 tcp 1040 ------- 0 0.0 5.0 14 30
r 0.377144 6 1 ack 40 ------- 0 3.0 1.0 5 32
h 0.377144 1 6 tcp 1040 ------- 0 1.0 3.0 11 39
h 0.377144 1 6 tcp 1040 ------- 0 1.0 3.0 12 40
- 0.37732 1 6 tcp 1040 ------- 0 1.0 3.0 8 34
- 0.37918 4 5 tcp 1040 ------- 0 0.0 5.0 12 28
r 0.38018 4 5 tcp 1040 ------- 0 0.0 5.0 11 26
+ 0.382568 1 6 tcp 1040 ------- 0 1.0 3.0 9 37
- 0.382568 1 6 tcp 1040 ------- 0 1.0 3.0 9 37
+ 0.382568 1 6 tcp 1040 ------- 0 1.0 3.0 10 38
+ 0.38318 4 6 ack 40 ------- 0 5.0 0.0 10 36
- 0.38318 4 6 ack 40 ------- 0 5.0 0.0 10 36
- 0.386832 1 6 tcp 1040 ------- 0 1.0 3.0 10 38
+ 0.387144 1 6 tcp 1040 ------- 0 1.0 3.0 11 39
+ 0.387144 1 6 tcp 1040 ------- 0 1.0 3.0 12 40
r 0.387276 6 2 tcp 1040 ------- 0 1.0 3.0 7 33
+ 0.387276 2 3 tcp 1040 ------- 0 1.0 3.0 7 33
- 0.387276 2 3 tcp 1040 ------- 0 1.0 3.0 7 33
- 0.3875 4 5 tcp 1040 ------- 0 0.0 5.0 13 29
r 0.38772 6 1 ack 40 ------- 0 3.0 1.0 6 35
h 0.38772 1 6 tcp 1040 ------- 0 1.0 3.0 13 41
h 0.38772 1 6 tcp 1040 ------- 0 1.0 3.0 14 42
r 0.3885 4 5 tcp 1040 ------- 0 0.0 5.0 12 28
+ 0.3885 5 4 ack 40 ------- 0 5.0 0.0 12 43
- 0.3885 5 4 ack 40 ------- 0 5.0 0.0 12 43
r 0.38982 5 4 ack 40 ------- 0 5.0 0.0 12 43
h 0.38982 4 6 ack 40 ------- 0 5.0 0.0 12 43
- 0.391488 1 6 tcp 1040 ------- 0 1.0 3.0 11 39
r 0.392444 6 2 tcp 1040 ------- 0 1.0 3.0 8 34
+ 0.392444 2 3 tcp 1040 ------- 0 1.0 3.0 8 34
- 0.395596 2 3 tcp 1040 ------- 0 1.0 3.0 8 34
- 0.39608 1 6 tcp 1040 ------- 0 1.0 3.0 12 40
r 0.396596 2 3 tcp 1040 ------- 0 1.0 3.0 7 33
+ 0.396596 3 2 ack 40 ------- 0 3.0 1.0 7 44
- 0.396596 3 2 ack 40 ------- 0 3.0 1.0 7 44
r 0.396788 6 2 tcp 1040 ------- 0 1.0 3.0 9 37
+ 0.396788 2 3 tcp 1040 ------- 0 1.0 3.0 9 37
r 0.39682 4 5 tcp 1040 ------- 0 0.0 5.0 13 29
+ 0.39772 1 6 tcp 1040 ------- 0 1.0 3.0 13 41
+ 0.39772 1 6 tcp 1040 ------- 0 1.0 3.0 14 42
r 0.397916 3 2 ack 40 ------- 0 3.0 1.0 7 44
h 0.397916 2 6 ack 40 ------- 0 3.0 1.0 7 44
+ 0.39982 4 6 ack 40 ------- 0 5.0 0.0 12 43
- 0.400416 1 6 tcp 1040 ------- 0 1.0 3.0 13 41
r 0.401444 6 2 tcp 1040 ------- 0 1.0 3.0 10 38
+ 0.401444 2 3 tcp 1040 ------- 0 1.0 3.0 10 38
- 0.403916 2 3 tcp 1040 ------- 0 1.0 3.0 9 37
r 0.404916 2 3 tcp 1040 ------- 0 1.0 3.0 8 34
+ 0.404916 3 2 ack 40 ------- 0 3.0 1.0 8 45
- 0.404916 3 2 ack 40 ------- 0 3.0 1.0 8 45
- 0.405008 1 6 tcp 1040 ------- 0 1.0 3.0 14 42
r 0.406036 6 2 tcp 1040 ------- 0 1.0 3.0 11 39
+ 0.406036 2 3 tcp 1040 ------- 0 1.0 3.0 11 39
r 0.406236 3 2 ack 40 ------- 0 3.0 1.0 8 45
h 0.406236 2 6 ack 40 ------- 0 3.0 1.0 8 45
+ 0.407916 2 6 ack 40 ------- 0 3.0 1.0 7 44
- 0.407916 2 6 ack 40 ------- 0 3.0 1.0 7 44
r 0.410372 6 2 tcp 1040 ------- 0 1.0 3.0 12 40
+ 0.410372 2 3 tcp 1040 ------- 0 1.0 3.0 12 40
- 0.412236 2 3 tcp 1040 ------- 0 1.0 3.0 10 38
r 0.413236 2 3 tcp 1040 ------- 0 1.0 3.0 9 37
+ 0.413236 3 2 ack 40 ------- 0 3.0 1.0 9 46
- 0.413236 3 2 ack 40 ------- 0 3.0 1.0 9 46
- 0.413828 4 6 ack 40 ------- 0 5.0 0.0 12 43
r 0.414556 3 2 ack 40 ------- 0 3.0 1.0 9 46
h 0.414556 2 6 ack 40 ------- 0 3.0 1.0 9 46
r 0.414964 6 2 tcp 1040 ------- 0 1.0 3.0 13 41
+ 0.414964 2 3 tcp 1040 ------- 0 1.0 3.0 13 41
+ 0.416236 2 6 ack 40 ------- 0 3.0 1.0 8 45
- 0.416236 2 6 ack 40 ------- 0 3.0 1.0 8 45
r 0.419556 6 2 tcp 1040 ------- 0 1.0 3.0 14 42
+ 0.419556 2 3 tcp 1040 ------- 0 1.0 3.0 14 42
r 0.419864 6 1 ack 40 ------- 0 3.0 1.0 7 44
h 0.419864 1 6 tcp 1040 ------- 0 1.0 3.0 15 47
h 0.419864 1 6 tcp 1040 ------- 0 1.0 3.0 16 48
- 0.420556 2 3 tcp 1040 ------- 0 1.0 3.0 11 39
r 0.421556 2 3 tcp 1040 ------- 0 1.0 3.0 10 38
+ 0.421556 3 2 ack 40 ------- 0 3.0 1.0 10 49
- 0.421556 3 2 ack 40 ------- 0 3.0 1.0 10 49
r 0.422876 3 2 ack 40 ------- 0 3.0 1.0 10 49
h 0.422876 2 6 ack 40 ------- 0 3.0 1.0 10 49
r 0.423784 6 0 ack 40 ------- 0 5.0 0.0 10 36
h 0.423784 0 6 tcp 1040 ------- 0 0.0 5.0 15 50
h 0.423784 0 6 tcp 1040 ------- 0 0.0 5.0 16 51
h 0.423784 0 6 tcp 1040 ------- 0 0.0 5.0 17 52
r 0.424088 6 0 ack 40 ------- 0 5.0 0.0 12 43
h 0.424088 0 6 tcp 1040 ------- 0 0.0 5.0 18 53
h 0.424088 0 6 tcp 1040 ------- 0 0.0 5.0 19 54
h 0.424088 0 6 tcp 1040 ------- 0 0.0 5.0 20 55
+ 0.424556 2 6 ack 40 ------- 0 3.0 1.0 9 46
- 0.424556 2 6 ack 40 ------- 0 3.0 1.0 9 46
r 0.426496 6 1 ack 40 ------- 0 3.0 1.0 8 45
h 0.426496 1 6 tcp 1040 ------- 0 1.0 3.0 17 56
h 0.426496 1 6 tcp 1040 ------- 0 1.0 3.0 18 57
- 0.428876 2 3 tcp 1040 ------- 0 1.0 3.0 12 40
+ 0.429864 1 6 tcp 1040 ------- 0 1.0 3.0 15 47
- 0.429864 1 6 tcp 1040 ------- 0 1.0 3.0 15 47
+ 0.429864 1 6 tcp 1040 ------- 0 1.0 3.0 16 48
r 0.429876 2 3 tcp 1040 ------- 0 1.0 3.0 11 39
+ 0.429876 3 2 ack 40 ------- 0 3.0 1.0 11 58
- 0.429876 3 2 ack 40 ------- 0 3.0 1.0 11 58
r 0.431196 3 2 ack 40 ------- 0 3.0 1.0 11 58
h 0.431196 2 6 ack 40 ------- 0 3.0 1.0 11 58
+ 0.432876 2 6 ack 40 ------- 0 3.0 1.0 10 49
- 0.432876 2 6 ack 40 ------- 0 3.0 1.0 10 49
+ 0.433784 0 6 tcp 1040 ------- 0 0.0 5.0 15 50
- 0.433784 0 6 tcp 1040 ------- 0 0.0 5.0 15 50
+ 0.433784 0 6 tcp 1040 ------- 0 0.0 5.0 16 51
+ 0.433784 0 6 tcp 1040 ------- 0 0.0 5.0 17 52
+ 0.434088 0 6 tcp 1040 ------- 0 0.0 5.0 18 53
+ 0.434088 0 6 tcp 1040 ------- 0 0.0 5.0 19 54
+ 0.434088 0 6 tcp 1040 ------- 0 0.0 5.0 20 55
- 0.434128 1 6 tcp 1040 ------- 0 1.0 3.0 16 48
r 0.434816 6 1 ack 40 ------- 0 3.0 1.0 9 46
h 0.434816 1 6 tcp 1040 ------- 0 1.0 3.0 19 59
h 0.434816 1 6 tcp 1040 ------- 0 1.0 3.0 20 60
+ 0.436496 1 6 tcp 1040 ------- 0 1.0 3.0 17 56
+ 0.436496 1 6 tcp 1040 ------- 0 1.0 3.0 18 57
- 0.437196 2 3 tcp 1040 ------- 0 1.0 3.0 13 41
r 0.438196 2 3 tcp 1040 ------- 0 1.0 3.0 12 40
+ 0.438196 3 2 ack 40 ------- 0 3.0 1.0 12 61
- 0.438196 3 2 ack 40 ------- 0 3.0 1.0 12 61
- 0.43872 1 6 tcp 1040 ------- 0 1.0 3.0 17 56
r 0.439516 3 2 ack 40 ------- 0 3.0 1.0 12 61
h 0.439516 2 6 ack 40 ------- 0 3.0 1.0 12 61
+ 0.441196 2 6 ack 40 ------- 0 3.0 1.0 11 58
- 0.443312 1 6 tcp 1040 ------- 0 1.0 3.0 18 57
r 0.444084 6 2 tcp 1040 ------- 0 1.0 3.0 15 47
+ 0.444084 2 3 tcp 1040 ------- 0 1.0 3.0 15 47
+ 0.444816 1 6 tcp 1040 ------- 0 1.0 3.0 19 59
+ 0.444816 1 6 tcp 1040 ------- 0 1.0 3.0 20 60
- 0.445516 2 3 tcp 1040 ------- 0 1.0 3.0 14 42
r 0.446516 2 3 tcp 1040 ------- 0 1.0 3.0 13 41
+ 0.446516 3 2 ack 40 ------- 0 3.0 1.0 13 62
- 0.446516 3 2 ack 40 ------- 0 3.0 1.0 13 62
- 0.447648 1 6 tcp 1040 ------- 0 1.0 3.0 19 59
r 0.447836 3 2 ack 40 ------- 0 3.0 1.0 13 62
h 0.447836 2 6 ack 40 ------- 0 3.0 1.0 13 62
r 0.448676 6 2 tcp 1040 ------- 0 1.0 3.0 16 48
+ 0.448676 2 3 tcp 1040 ------- 0 1.0 3.0 16 48
+ 0.449516 2 6 ack 40 ------- 0 3.0 1.0 12 61
- 0.452816 1 6 tcp 1040 ------- 0 1.0 3.0 20 60
r 0.453268 6 2 tcp 1040 ------- 0 1.0 3.0 17 56
+ 0.453268 2 3 tcp 1040 ------- 0 1.0 3.0 17 56
- 0.453836 2 3 tcp 1040 ------- 0 1.0 3.0 15 47
r 0.454836 2 3 tcp 1040 ------- 0 1.0 3.0 14 42
+ 0.454836 3 2 ack 40 ------- 0 3.0 1.0 14 63
- 0.454836 3 2 ack 40 ------- 0 3.0 1.0 14 63
r 0.456156 3 2 ack 40 ------- 0 3.0 1.0 14 63
h 0.456156 2 6 ack 40 ------- 0 3.0 1.0 14 63
r 0.457604 6 2 tcp 1040 ------- 0 1.0 3.0 18 57
+ 0.457604 2 3 tcp 1040 ------- 0 1.0 3.0 18 57
+ 0.457836 2 6 ack 40 ------- 0 3.0 1.0 13 62
- 0.462156 2 3 tcp 1040 ------- 0 1.0 3.0 16 48
r 0.462772 6 2 tcp 1040 ------- 0 1.0 3.0 19 59
+ 0.462772 2 3 tcp 1040 ------- 0 1.0 3.0 19 59
r 0.463156 2 3 tcp 1040 ------- 0 1.0 3.0 15 47
+ 0.463156 3 2 ack 40 ------- 0 3.0 1.0 15 64
- 0.463156 3 2 ack 40 ------- 0 3.0 1.0 15 64
- 0.463684 2 6 ack 40 ------- 0 3.0 1.0 11 58
- 0.463988 2 6 ack 40 ------- 0 3.0 1.0 12 61
- 0.464292 2 6 ack 40 ------- 0 3.0 1.0 13 62
r 0.464476 3 2 ack 40 ------- 0 3.0 1.0 15 64
h 0.464476 2 6 ack 40 ------- 0 3.0 1.0 15 64
+ 0.466156 2 6 ack 40 ------- 0 3.0 1.0 14 63
- 0.466156 2 6 ack 40 ------- 0 3.0 1.0 14 63
r 0.467364 6 2 tcp 1040 ------- 0 1.0 3.0 20 60
+ 0.467364 2 3 tcp 1040 ------- 0 1.0 3.0 20 60
- 0.470476 2 3 tcp 1040 ------- 0 1.0 3.0 17 56
r 0.471476 2 3 tcp 1040 ------- 0 1.0 3.0 16 48
+ 0.471476 3 2 ack 40 ------- 0 3.0 1.0 16 65
- 0.471476 3 2 ack 40 ------- 0 3.0 1.0 16 65
r 0.472796 3 2 ack 40 ------- 0 3.0 1.0 16 65
h 0.472796 2 6 ack 40 ------- 0 3.0 1.0 16 65
r 0.47364 6 1 ack 40 ------- 0 3.0 1.0 10 49
h 0.47364 1 6 tcp 1040 ------- 0 1.0 3.0 21 66
h 0.47364 1 6 tcp 1040 ------- 0 1.0 3.0 22 67
r 0.473944 6 1 ack 40 ------- 0 3.0 1.0 11 58
h 0.473944 1 6 tcp 1040 ------- 0 1.0 3.0 23 68
h 0.473944 1 6 tcp 1040 ------- 0 1.0 3.0 24 69
r 0.474248 6 1 ack 40 ------- 0 3.0 1.0 12 61
h 0.474248 1 6 tcp 1040 ------- 0 1.0 3.0 25 70
h 0.474248 1 6 tcp 1040 ------- 0 1.0 3.0 26 71
+ 0.474476 2 6 ack 40 ------- 0 3.0 1.0 15 64
- 0.474476 2 6 ack 40 ------- 0 3.0 1.0 15 64
r 0.474624 6 1 ack 40 ------- 0 3.0 1.0 13 62
h 0.474624 1 6 tcp 1040 ------- 0 1.0 3.0 27 72
h 0.474624 1 6 tcp 1040 ------- 0 1.0 3.0 28 73
r 0.476416 6 1 ack 40 ------- 0 3.0 1.0 14 63
h 0.476416 1 6 tcp 1040 ------- 0 1.0 3.0 29 74
h 0.476416 1 6 tcp 1040 ------- 0 1.0 3.0 30 75
- 0.478796 2 3 tcp 1040 ------- 0 1.0 3.0 18 57
r 0.479796 2 3 tcp 1040 ------- 0 1.0 3.0 17 56
+ 0.479796 3 2 ack 40 ------- 0 3.0 1.0 17 76
- 0.479796 3 2 ack 40 ------- 0 3.0 1.0 17 76
r 0.481116 3 2 ack 40 ------- 0 3.0 1.0 17 76
h 0.481116 2 6 ack 40 ------- 0 3.0 1.0 17 76
+ 0.482796 2 6 ack 40 ------- 0 3.0 1.0 16 65
- 0.482796 2 6 ack 40 ------- 0 3.0 1.0 16 65
+ 0.48364 1 6 tcp 1040 ------- 0 1.0 3.0 21 66
- 0.48364 1 6 tcp 1040 ------- 0 1.0 3.0 21 66
+ 0.48364 1 6 tcp 1040 ------- 0 1.0 3.0 22 67
+ 0.483944 1 6 tcp 1040 ------- 0 1.0 3.0 23 68
+ 0.483944 1 6 tcp 1040 ------- 0 1.0 3.0 24 69
+ 0.484248 1 6 tcp 1040 ------- 0 1.0 3.0 25 70
+ 0.484248 1 6 tcp 1040 ------- 0 1.0 3.0 26 71
+ 0.484624 1 6 tcp 1040 ------- 0 1.0 3.0 27 72
+ 0.484624 1 6 tcp 1040 ------- 0 1.0 3.0 28 73
r 0.484736 6 1 ack 40 ------- 0 3.0 1.0 15 64
h 0.484736 1 6 tcp 1040 ------- 0 1.0 3.0 31 77
h 0.484736 1 6 tcp 1040 ------- 0 1.0 3.0 32 78
+ 0.486416 1 6 tcp 1040 ------- 0 1.0 3.0 29 74
+ 0.486416 1 6 tcp 1040 ------- 0 1.0 3.0 30 75
- 0.487116 2 3 tcp 1040 ------- 0 1.0 3.0 19 59
- 0.487904 1 6 tcp 1040 ------- 0 1.0 3.0 22 67
r 0.488116 2 3 tcp 1040 ------- 0 1.0 3.0 18 57
+ 0.488116 3 2 ack 40 ------- 0 3.0 1.0 18 79
- 0.488116 3 2 ack 40 ------- 0 3.0 1.0 18 79
r 0.489436 3 2 ack 40 ------- 0 3.0 1.0 18 79
h 0.489436 2 6 ack 40 ------- 0 3.0 1.0 18 79
+ 0.491116 2 6 ack 40 ------- 0 3.0 1.0 17 76
- 0.491116 2 6 ack 40 ------- 0 3.0 1.0 17 76
- 0.49224 1 6 tcp 1040 ------- 0 1.0 3.0 23 68
r 0.493056 6 1 ack 40 ------- 0 3.0 1.0 16 65
h 0.493056 1 6 tcp 1040 ------- 0 1.0 3.0 33 80
h 0.493056 1 6 tcp 1040 ------- 0 1.0 3.0 34 81
+ 0.494736 1 6 tcp 1040 ------- 0 1.0 3.0 31 77
+ 0.494736 1 6 tcp 1040 ------- 0 1.0 3.0 32 78
- 0.495436 2 3 tcp 1040 ------- 0 1.0 3.0 20 60
r 0.496436 2 3 tcp 1040 ------- 0 1.0 3.0 19 59
+ 0.496436 3 2 ack 40 ------- 0 3.0 1.0 19 82
- 0.496436 3 2 ack 40 ------- 0 3.0 1.0 19 82
+ 0.49682 5 4 ack 40 ------- 0 5.0 0.0 13 83
- 0.49682 5 4 ack 40 ------- 0 5.0 0.0 13 83
- 0.49772 1 6 tcp 1040 ------- 0 1.0 3.0 24 69
r 0.497756 3 2 ack 40 ------- 0 3.0 1.0 19 82
h 0.497756 2 6 ack 40 ------- 0 3.0 1.0 19 82
r 0.49786 6 2 tcp 1040 ------- 0 1.0 3.0 21 66
+ 0.49786 2 3 tcp 1040 ------- 0 1.0 3.0 21 66
r 0.49814 5 4 ack 40 ------- 0 5.0 0.0 13 83
h 0.49814 4 6 ack 40 ------- 0 5.0 0.0 13 83
+ 0.499436 2 6 ack 40 ------- 0 3.0 1.0 18 79
- 0.499436 2 6 ack 40 ------- 0 3.0 1.0 18 79
- 0.501984 1 6 tcp 1040 ------- 0 1.0 3.0 25 70
r 0.502196 6 2 tcp 1040 ------- 0 1.0 3.0 22 67
+ 0.502196 2 3 tcp 1040 ------- 0 1.0 3.0 22 67
+ 0.503056 1 6 tcp 1040 ------- 0 1.0 3.0 33 80
+ 0.503056 1 6 tcp 1040 ------- 0 1.0 3.0 34 81
r 0.503408 6 1 ack 40 ------- 0 3.0 1.0 17 76
h 0.503408 1 6 tcp 1040 ------- 0 1.0 3.0 35 84
h 0.503408 1 6 tcp 1040 ------- 0 1.0 3.0 36 85
- 0.503756 2 3 tcp 1040 ------- 0 1.0 3.0 21 66
r 0.504756 2 3 tcp 1040 ------- 0 1.0 3.0 20 60
+ 0.504756 3 2 ack 40 ------- 0 3.0 1.0 20 86
- 0.504756 3 2 ack 40 ------- 0 3.0 1.0 20 86
r 0.506076 3 2 ack 40 ------- 0 3.0 1.0 20 86
h 0.506076 2 6 ack 40 ------- 0 3.0 1.0 20 86
- 0.506624 1 6 tcp 1040 ------- 0 1.0 3.0 26 71
r 0.507676 6 2 tcp 1040 ------- 0 1.0 3.0 23 68
+ 0.507676 2 3 tcp 1040 ------- 0 1.0 3.0 23 68
+ 0.507756 2 6 ack 40 ------- 0 3.0 1.0 19 82
- 0.507756 2 6 ack 40 ------- 0 3.0 1.0 19 82
+ 0.50814 4 6 ack 40 ------- 0 5.0 0.0 13 83
- 0.50814 4 6 ack 40 ------- 0 5.0 0.0 13 83
- 0.510888 1 6 tcp 1040 ------- 0 1.0 3.0 27 72
r 0.51194 6 2 tcp 1040 ------- 0 1.0 3.0 24 69
+ 0.51194 2 3 tcp 1040 ------- 0 1.0 3.0 24 69
- 0.512076 2 3 tcp 1040 ------- 0 1.0 3.0 22 67
r 0.512312 6 1 ack 40 ------- 0 3.0 1.0 18 79
h 0.512312 1 6 tcp 1040 ------- 0 1.0 3.0 37 87
h 0.512312 1 6 tcp 1040 ------- 0 1.0 3.0 38 88
r 0.513076 2 3 tcp 1040 ------- 0 1.0 3.0 21 66
+ 0.513076 3 2 ack 40 ------- 0 3.0 1.0 21 89
- 0.513076 3 2 ack 40 ------- 0 3.0 1.0 21 89
+ 0.513408 1 6 tcp 1040 ------- 0 1.0 3.0 35 84
+ 0.513408 1 6 tcp 1040 ------- 0 1.0 3.0 36 85
r 0.514396 3 2 ack 40 ------- 0 3.0 1.0 21 89
h 0.514396 2 6 ack 40 ------- 0 3.0 1.0 21 89
- 0.515224 1 6 tcp 1040 ------- 0 1.0 3.0 28 73
+ 0.516076 2 6 ack 40 ------- 0 3.0 1.0 20 86
r 0.51658 6 2 tcp 1040 ------- 0 1.0 3.0 25 70
+ 0.51658 2 3 tcp 1040 ------- 0 1.0 3.0 25 70
- 0.51956 1 6 tcp 1040 ------- 0 1.0 3.0 29 74
- 0.520396 2 3 tcp 1040 ------- 0 1.0 3.0 23 68
r 0.520844 6 2 tcp 1040 ------- 0 1.0 3.0 26 71
+ 0.520844 2 3 tcp 1040 ------- 0 1.0 3.0 26 71
r 0.521396 2 3 tcp 1040 ------- 0 1.0 3.0 22 67
+ 0.521396 3 2 ack 40 ------- 0 3.0 1.0 22 90
- 0.521396 3 2 ack 40 ------- 0 3.0 1.0 22 90
+ 0.522312 1 6 tcp 1040 ------- 0 1.0 3.0 37 87
+ 0.522312 1 6 tcp 1040 ------- 0 1.0 3.0 38 88
r 0.522716 3 2 ack 40 ------- 0 3.0 1.0 22 90
h 0.522716 2 6 ack 40 ------- 0 3.0 1.0 22 90
- 0.524216 1 6 tcp 1040 ------- 0 1.0 3.0 30 75
+ 0.524396 2 6 ack 40 ------- 0 3.0 1.0 21 89
r 0.52518 6 2 tcp 1040 ------- 0 1.0 3.0 27 72
+ 0.52518 2 3 tcp 1040 ------- 0 1.0 3.0 27 72
- 0.528552 1 6 tcp 1040 ------- 0 1.0 3.0 31 77
- 0.528716 2 3 tcp 1040 ------- 0 1.0 3.0 24 69
r 0.529516 6 2 tcp 1040 ------- 0 1.0 3.0 28 73
+ 0.529516 2 3 tcp 1040 ------- 0 1.0 3.0 28 73
r 0.529716 2 3 tcp 1040 ------- 0 1.0 3.0 23 68
+ 0.529716 3 2 ack 40 ------- 0 3.0 1.0 23 91
- 0.529716 3 2 ack 40 ------- 0 3.0 1.0 23 91
r 0.531036 3 2 ack 40 ------- 0 3.0 1.0 23 91
h 0.531036 2 6 ack 40 ------- 0 3.0 1.0 23 91
+ 0.532716 2 6 ack 40 ------- 0 3.0 1.0 22 90
- 0.532888 1 6 tcp 1040 ------- 0 1.0 3.0 32 78
r 0.534172 6 2 tcp 1040 ------- 0 1.0 3.0 29 74
+ 0.534172 2 3 tcp 1040 ------- 0 1.0 3.0 29 74
d 0.534172 2 3 tcp 1040 ------- 0 1.0 3.0 29 74
- 0.537036 2 3 tcp 1040 ------- 0 1.0 3.0 25 70
- 0.537224 1 6 tcp 1040 ------- 0 1.0 3.0 33 80
r 0.538036 2 3 tcp 1040 ------- 0 1.0 3.0 24 69
+ 0.538036 3 2 ack 40 ------- 0 3.0 1.0 24 92
- 0.538036 3 2 ack 40 ------- 0 3.0 1.0 24 92
r 0.538508 6 2 tcp 1040 ------- 0 1.0 3.0 30 75
+ 0.538508 2 3 tcp 1040 ------- 0 1.0 3.0 30 75
r 0.539356 3 2 ack 40 ------- 0 3.0 1.0 24 92
h 0.539356 2 6 ack 40 ------- 0 3.0 1.0 24 92
+ 0.541036 2 6 ack 40 ------- 0 3.0 1.0 23 91
- 0.541816 1 6 tcp 1040 ------- 0 1.0 3.0 34 81
r 0.542844 6 2 tcp 1040 ------- 0 1.0 3.0 31 77
+ 0.542844 2 3 tcp 1040 ------- 0 1.0 3.0 31 77
d 0.542844 2 3 tcp 1040 ------- 0 1.0 3.0 31 77
- 0.545356 2 3 tcp 1040 ------- 0 1.0 3.0 26 71
- 0.54608 1 6 tcp 1040 ------- 0 1.0 3.0 35 84
r 0.546356 2 3 tcp 1040 ------- 0 1.0 3.0 25 70
+ 0.546356 3 2 ack 40 ------- 0 3.0 1.0 25 93
- 0.546356 3 2 ack 40 ------- 0 3.0 1.0 25 93
r 0.54718 6 2 tcp 1040 ------- 0 1.0 3.0 32 78
+ 0.54718 2 3 tcp 1040 ------- 0 1.0 3.0 32 78
r 0.547676 3 2 ack 40 ------- 0 3.0 1.0 25 93
h 0.547676 2 6 ack 40 ------- 0 3.0 1.0 25 93
+ 0.549356 2 6 ack 40 ------- 0 3.0 1.0 24 92
- 0.550416 1 6 tcp 1040 ------- 0 1.0 3.0 36 85
r 0.551772 6 2 tcp 1040 ------- 0 1.0 3.0 33 80
+ 0.551772 2 3 tcp 1040 ------- 0 1.0 3.0 33 80
d 0.551772 2 3 tcp 1040 ------- 0 1.0 3.0 33 80
- 0.553676 2 3 tcp 1040 ------- 0 1.0 3.0 27 72
r 0.554676 2 3 tcp 1040 ------- 0 1.0 3.0 26 71
+ 0.554676 3 2 ack 40 ------- 0 3.0 1.0 26 94
- 0.554676 3 2 ack 40 ------- 0 3.0 1.0 26 94
- 0.55468 1 6 tcp 1040 ------- 0 1.0 3.0 37 87
r 0.555996 3 2 ack 40 ------- 0 3.0 1.0 26 94
h 0.555996 2 6 ack 40 ------- 0 3.0 1.0 26 94
r 0.556036 6 2 tcp 1040 ------- 0 1.0 3.0 34 81
+ 0.556036 2 3 tcp 1040 ------- 0 1.0 3.0 34 81
+ 0.557676 2 6 ack 40 ------- 0 3.0 1.0 25 93
- 0.558944 1 6 tcp 1040 ------- 0 1.0 3.0 38 88
r 0.560372 6 2 tcp 1040 ------- 0 1.0 3.0 35 84
+ 0.560372 2 3 tcp 1040 ------- 0 1.0 3.0 35 84
d 0.560372 2 3 tcp 1040 ------- 0 1.0 3.0 35 84
- 0.561996 2 3 tcp 1040 ------- 0 1.0 3.0 28 73
r 0.562996 2 3 tcp 1040 ------- 0 1.0 3.0 27 72
+ 0.562996 3 2 ack 40 ------- 0 3.0 1.0 27 95
- 0.562996 3 2 ack 40 ------- 0 3.0 1.0 27 95
r 0.564316 3 2 ack 40 ------- 0 3.0 1.0 27 95
h 0.564316 2 6 ack 40 ------- 0 3.0 1.0 27 95
r 0.564636 6 2 tcp 1040 ------- 0 1.0 3.0 36 85
+ 0.564636 2 3 tcp 1040 ------- 0 1.0 3.0 36 85
+ 0.565996 2 6 ack 40 ------- 0 3.0 1.0 26 94
- 0.568468 2 6 ack 40 ------- 0 3.0 1.0 20 86
- 0.568772 2 6 ack 40 ------- 0 3.0 1.0 21 89
r 0.5689 6 2 tcp 1040 ------- 0 1.0 3.0 37 87
+ 0.5689 2 3 tcp 1040 ------- 0 1.0 3.0 37 87
d 0.5689 2 3 tcp 1040 ------- 0 1.0 3.0 37 87
- 0.569076 2 6 ack 40 ------- 0 3.0 1.0 22 90
- 0.56938 2 6 ack 40 ------- 0 3.0 1.0 23 91
- 0.569684 2 6 ack 40 ------- 0 3.0 1.0 24 92
- 0.569988 2 6 ack 40 ------- 0 3.0 1.0 25 93
- 0.570292 2 6 ack 40 ------- 0 3.0 1.0 26 94
- 0.570316 2 3 tcp 1040 ------- 0 1.0 3.0 30 75
r 0.571316 2 3 tcp 1040 ------- 0 1.0 3.0 28 73
+ 0.571316 3 2 ack 40 ------- 0 3.0 1.0 28 96
- 0.571316 3 2 ack 40 ------- 0 3.0 1.0 28 96
r 0.572636 3 2 ack 40 ------- 0 3.0 1.0 28 96
h 0.572636 2 6 ack 40 ------- 0 3.0 1.0 28 96
r 0.573164 6 2 tcp 1040 ------- 0 1.0 3.0 38 88
+ 0.573164 2 3 tcp 1040 ------- 0 1.0 3.0 38 88
+ 0.574316 2 6 ack 40 ------- 0 3.0 1.0 27 95
- 0.574316 2 6 ack 40 ------- 0 3.0 1.0 27 95
r 0.578424 6 1 ack 40 ------- 0 3.0 1.0 19 82
h 0.578424 1 6 tcp 1040 ------- 0 1.0 3.0 39 97
- 0.578636 2 3 tcp 1040 ------- 0 1.0 3.0 32 78
r 0.578728 6 1 ack 40 ------- 0 3.0 1.0 20 86
h 0.578728 1 6 tcp 1040 ------- 0 1.0 3.0 40 98
r 0.579032 6 1 ack 40 ------- 0 3.0 1.0 21 89
h 0.579032 1 6 tcp 1040 ------- 0 1.0 3.0 41 99
r 0.579336 6 1 ack 40 ------- 0 3.0 1.0 22 90
h 0.579336 1 6 tcp 1040 ------- 0 1.0 3.0 42 100
r 0.579636 2 3 tcp 1040 ------- 0 1.0 3.0 30 75
+ 0.579636 3 2 ack 40 ------- 0 3.0 1.0 28 101
- 0.579636 3 2 ack 40 ------- 0 3.0 1.0 28 101
r 0.57964 6 1 ack 40 ------- 0 3.0 1.0 23 91
h 0.57964 1 6 tcp 1040 ------- 0 1.0 3.0 43 102
r 0.579944 6 1 ack 40 ------- 0 3.0 1.0 24 92
h 0.579944 1 6 tcp 1040 ------- 0 1.0 3.0 44 103
r 0.580248 6 1 ack 40 ------- 0 3.0 1.0 25 93
h 0.580248 1 6 tcp 1040 ------- 0 1.0 3.0 45 104
r 0.580552 6 1 ack 40 ------- 0 3.0 1.0 26 94
h 0.580552 1 6 tcp 1040 ------- 0 1.0 3.0 46 105
r 0.580956 3 2 ack 40 ------- 0 3.0 1.0 28 101
h 0.580956 2 6 ack 40 ------- 0 3.0 1.0 28 101
+ 0.582636 2 6 ack 40 ------- 0 3.0 1.0 28 96
- 0.582636 2 6 ack 40 ------- 0 3.0 1.0 28 96
r 0.584576 6 1 ack 40 ------- 0 3.0 1.0 27 95
h 0.584576 1 6 tcp 1040 ------- 0 1.0 3.0 47 106