V -t * -v 1.0a5 -a 0
A -t * -n 1 -p 0 -o 0x7fffffff -c 30 -a 1
A -t * -h 1 -m 1073741823 -s 0
n -t * -a 4 -s 4 -S UP -v circle -c black -i black
n -t * -a 0 -s 0 -S UP -v circle -c magenta -i magenta
n -t * -a 5 -s 5 -S UP -v circle -c magenta -i magenta
n -t * -a 1 -s 1 -S UP -v circle -c blue -i blue
n -t * -a 2 -s 2 -S UP -v circle -c black -i black
n -t * -a 3 -s 3 -S UP -v circle -c blue -i blue
l -t * -s 4 -d 5 -S UP -r 1000000 -D 0.001 -c black
l -t * -s 2 -d 3 -S UP -r 1000000 -D 0.001 -c black
X -t * -n 6 -r 2Mb -D 10ms -o left
L -t * -s 6 -d 0 -o up
L -t * -s 6 -d 1 -o down
L -t * -s 6 -d 2 -o up
L -t * -s 6 -d 4 -o down
h -t 0.1 -s 0 -d 6 -p tcp -e 40 -c 0 -i 0 -a 0 -x {0.0 5.0 0 ------- null}
+ -t 0.11 -s 0 -d 6 -p tcp -e 40 -c 0 -i 0 -a 0 -x {0.0 5.0 0 ------- null}
- -t 0.11 -s 0 -d 6 -p tcp -e 40 -c 0 -i 0 -a 0 -x {0.0 5.0 0 ------- null}
h -t 0.11 -s 0 -d 6 -p tcp -e 40 -c 0 -i 0 -a 0 -x {0.0 5.0 -1 ------- null}
r -t 0.12026 -s 6 -d 4 -p tcp -e 40 -c 0 -i 0 -a 0 -x {0.0 5.0 0 ------- null}
+ -t 0.12026 -s 4 -d 5 -p tcp -e 40 -c 0 -i 0 -a 0 -x {0.0 5.0 0 ------- null}
- -t 0.12026 -s 4 -d 5 -p tcp -e 40 -c 0 -i 0 -a 0 -x {0.0 5.0 0 ------- null}
h -t 0.12026 -s 4 -d 5 -p tcp -e 40 -c 0 -i 0 -a 0 -x {0.0 5.0 -1 ------- null}
r -t 0.12158 -s 4 -d 5 -p tcp -e 40 -c 0 -i 0 -a 0 -x {0.0 5.0 0 ------- null}
+ -t 0.12158 -s 5 -d 4 -p ack -e 40 -c 0 -i 1 -a 0 -x {5.0 0.0 0 ------- null}
- -t 0.12158 -s 5 -d 4 -p ack -e 40 -c 0 -i 1 -a 0 -x {5.0 0.0 0 ------- null}
h -t 0.12158 -s 5 -d 4 -p ack -e 40 -c 0 -i 1 -a 0 -x {5.0 0.0 -1 ------- null}
r -t 0.1229 -s 5 -d 4 -p ack -e 40 -c 0 -i 1 -a 0 -x {5.0 0.0 0 ------- null}
h -t 0.1229 -s 4 -d 6 -p ack -e 40 -c 0 -i 1 -a 0 -x {5.0 0.0 0 ------- null}
+ -t 0.1329 -s 4 -d 6 -p ack -e 40 -c 0 -i 1 -a 0 -x {5.0 0.0 0 ------- null}
- -t 0.1329 -s 4 -d 6 -p ack -e 40 -c 0 -i 1 -a 0 -x {5.0 0.0 0 ------- null}
h -t 0.1329 -s 4 -d 6 -p ack -e 40 -c 0 -i 1 -a 0 -x {5.0 0.0 -1 ------- null}
r -t 0.14316 -s 6 -d 0 -p ack -e 40 -c 0 -i 1 -a 0 -x {5.0 0.0 0 ------- null}
h -t 0.14316 -s 0 -d 6 -p tcp -e 1040 -c 0 -i 2 -a 0 -x {0.0 5.0 1 ------- null}
h -t 0.14316 -s 0 -d 6 -p tcp -e 1040 -c 0 -i 3 -a 0 -x {0.0 5.0 2 ------- null}
+ -t 0.15316 -s 0 -d 6 -p tcp -e 1040 -c 0 -i 2 -a 0 -x {0.0 5.0 1 ------- null}
- -t 0.15316 -s 0 -d 6 -p tcp -e 1040 -c 0 -i 2 -a 0 -x {0.0 5.0 1 ------- null}
h -t 0.15316 -s 0 -d 6 -p tcp -e 1040 -c 0 -i 2 -a 0 -x {0.0 5.0 -1 ------- null}
+ -t 0.15316 -s 0 -d 6 -p tcp -e 1040 -c 0 -i 3 -a 0 -x {0.0 5.0 2 ------- null}
- -t 0.157424 -s 0 -d 6 -p tcp -e 1040 -c 0 -i 3 -a 0 -x {0.0 5.0 2 ------- null}
h -t 0.157424 -s 0 -d 6 -p tcp -e 1040 -c 0 -i 3 -a 0 -x {0.0 5.0 -1 ------- null}
r -t 0.16738 -s 6 -d 4 -p tcp -e 1040 -c 0 -i 2 -a 0 -x {0.0 5.0 1 ------- null}
+ -t 0.16738 -s 4 -d 5 -p tcp -e 1040 -c 0 -i 2 -a 0 -x {0.0 5.0 1 ------- null}
- -t 0.16738 -s 4 -d 5 -p tcp -e 1040 -c 0 -i 2 -a 0 -x {0.0 5.0 1 ------- null}
h -t 0.16738 -s 4 -d 5 -p tcp -e 1040 -c 0 -i 2 -a 0 -x {0.0 5.0 -1 ------- null}
r -t 0.171644 -s 6 -d 4 -p tcp -e 1040 -c 0 -i 3 -a 0 -x {0.0 5.0 2 ------- null}
+ -t 0.171644 -s 4 -d 5 -p tcp -e 1040 -c 0 -i 3 -a 0 -x {0.0 5.0 2 ------- null}
- -t 0.1757 -s 4 -d 5 -p tcp -e 1040 -c 0 -i 3 -a 0 -x {0.0 5.0 2 ------- null}
h -t 0.1757 -s 4 -d 5 -p tcp -e 1040 -c 0 -i 3 -a 0 -x {0.0 5.0 -1 ------- null}
r -t 0.1767 -s 4 -d 5 -p tcp -e 1040 -c 0 -i 2 -a 0 -x {0.0 5.0 1 ------- null}
r -t 0.18502 -s 4 -d 5 -p tcp -e 1040 -c 0 -i 3 -a 0 -x {0.0 5.0 2 ------- null}
+ -t 0.18502 -s 5 -d 4 -p ack -e 40 -c 0 -i 4 -a 0 -x {5.0 0.0 2 ------- null}
- -t 0.18502 -s 5 -d 4 -p ack -e 40 -c 0 -i 4 -a 0 -x {5.0 0.0 2 ------- null}
h -t 0.18502 -s 5 -d 4 -p ack -e 40 -c 0 -i 4 -a 0 -x {5.0 0.0 -1 ------- null}
r -t 0.18634 -s 5 -d 4 -p ack -e 40 -c 0 -i 4 -a 0 -x {5.0 0.0 2 ------- null}
h -t 0.18634 -s 4 -d 6 -p ack -e 40 -c 0 -i 4 -a 0 -x {5.0 0.0 2 ------- null}
+ -t 0.19634 -s 4 -d 6 -p ack -e 40 -c 0 -i 4 -a 0 -x {5.0 0.0 2 ------- null}
- -t 0.19634 -s 4 -d 6 -p ack -e 40 -c 0 -i 4 -a 0 -x {5.0 0.0 2 ------- null}
h -t 0.19634 -s 4 -d 6 -p ack -e 40 -c 0 -i 4 -a 0 -x {5.0 0.0 -1 ------- null}
h -t 0.2 -s 1 -d 6 -p tcp -e 40 -c 0 -i 5 -a 0 -x {1.0 3.0 0 ------- null}
r -t 0.2066 -s 6 -d 0 -p ack -e 40 -c 0 -i 4 -a 0 -x {5.0 0.0 2 ------- null}
h -t 0.2066 -s 0 -d 6 -p tcp -e 1040 -c 0 -i 6 -a 0 -x {0.0 5.0 3 ------- null}
h -t 0.2066 -s 0 -d 6 -p tcp -e 1040 -c 0 -i 7 -a 0 -x {0.0 5.0 4 ------- null}
h -t 0.2066 -s 0 -d 6 -p tcp -e 1040 -c 0 -i 8 -a 0 -x {0.0 5.0 5 ------- null}
+ -t 0.21 -s 1 -d 6 -p tcp -e 40 -c 0 -i 5 -a 0 -x {1.0 3.0 0 ------- null}
- -t 0.21 -s 1 -d 6 -p tcp -e 40 -c 0 -i 5 -a 0 -x {1.0 3.0 0 ------- null}
h -t 0.21 -s 1 -d 6 -p tcp -e 40 -c 0 -i 5 -a 0 -x {1.0 3.0 -1 ------- null}
+ -t 0.2166 -s 0 -d 6 -p tcp -e 1040 -c 0 -i 6 -a 0 -x {0.0 5.0 3 ------- null}
- -t 0.2166 -s 0 -d 6 -p tcp -e 1040 -c 0 -i 6 -a 0 -x {0.0 5.0 3 ------- null}
h -t 0.2166 -s 0 -d 6 -p tcp -e 1040 -c 0 -i 6 -a 0 -x {0.0 5.0 -1 ------- null}
+ -t 0.2166 -s 0 -d 6 -p tcp -e 1040 -c 0 -i 7 -a 0 -x {0.0 5.0 4 ------- null}
+ -t 0.2166 -s 0 -d 6 -p tcp -e 1040 -c 0 -i 8 -a 0 -x {0.0 5.0 5 ------- null}
r -t 0.22026 -s 6 -d 2 -p tcp -e 40 -c 0 -i 5 -a 0 -x {1.0 3.0 0 ------- null}
+ -t 0.22026 -s 2 -d 3 -p tcp -e 40 -c 0 -i 5 -a 0 -x {1.0 3.0 0 ------- null}
- -t 0.22026 -s 2 -d 3 -p tcp -e 40 -c 0 -i 5 -a 0 -x {1.0 3.0 0 ------- null}
h -t 0.22026 -s 2 -d 3 -p tcp -e 40 -c 0 -i 5 -a 0 -x {1.0 3.0 -1 ------- null}
- -t 0.220864 -s 0 -d 6 -p tcp -e 1040 -c 0 -i 7 -a 0 -x {0.0 5.0 4 ------- null}
h -t 0.220864 -s 0 -d 6 -p tcp -e 1040 -c 0 -i 7 -a 0 -x {0.0 5.0 -1 ------- null}
r -t 0.22158 -s 2 -d 3 -p tcp -e 40 -c 0 -i 5 -a 0 -x {1.0 3.0 0 ------- null}
+ -t 0.22158 -s 3 -d 2 -p ack -e 40 -c 0 -i 9 -a 0 -x {3.0 1.0 0 ------- null}
- -t 0.22158 -s 3 -d 2 -p ack -e 40 -c 0 -i 9 -a 0 -x {3.0 1.0 0 ------- null}
h -t 0.22158 -s 3 -d 2 -p ack -e 40 -c 0 -i 9 -a 0 -x {3.0 1.0 -1 ------- null}
r -t 0.2229 -s 3 -d 2 -p ack -e 40 -c 0 -i 9 -a 0 -x {3.0 1.0 0 ------- null}
h -t 0.2229 -s 2 -d 6 -p ack -e 40 -c 0 -i 9 -a 0 -x {3.0 1.0 0 ------- null}
- -t 0.225128 -s 0 -d 6 -p tcp -e 1040 -c 0 -i 8 -a 0 -x {0.0 5.0 5 ------- null}
h -t 0.225128 -s 0 -d 6 -p tcp -e 1040 -c 0 -i 8 -a 0 -x {0.0 5.0 -1 ------- null}
r -t 0.23082 -s 6 -d 4 -p tcp -e 1040 -c 0 -i 6 -a 0 -x {0.0 5.0 3 ------- null}
+ -t 0.23082 -s 4 -d 5 -p tcp -e 1040 -c 0 -i 6 -a 0 -x {0.0 5.0 3 ------- null}
- -t 0.23082 -s 4 -d 5 -p tcp -e 1040 -c 0 -i 6 -a 0 -x {0.0 5.0 3 ------- null}
h -t 0.23082 -s 4 -d 5 -p tcp -e 1040 -c 0 -i 6 -a 0 -x {0.0 5.0 -1 ------- null}
+ -t 0.2329 -s 2 -d 6 -p ack -e 40 -c 0 -i 9 -a 0 -x {3.0 1.0 0 ------- null}
- -t 0.2329 -s 2 -d 6 -p ack -e 40 -c 0 -i 9 -a 0 -x {3.0 1.0 0 ------- null}
h -t 0.2329 -s 2 -d 6 -p ack -e 40 -c 0 -i 9 -a 0 -x {3.0 1.0 -1 ------- null}
r -t 0.235084 -s 6 -d 4 -p tcp -e 1040 -c 0 -i 7 -a 0 -x {0.0 5.0 4 ------- null}
+ -t 0.235084 -s 4 -d 5 -p tcp -e 1040 -c 0 -i 7 -a 0 -x {0.0 5.0 4 ------- null}
- -t 0.23914 -s 4 -d 5 -p tcp -e 1040 -c 0 -i 7 -a 0 -x {0.0 5.0 4 ------- null}
h -t 0.23914 -s 4 -d 5 -p tcp -e 1040 -c 0 -i 7 -a 0 -x {0.0 5.0 -1 ------- null}
r -t 0.239348 -s 6 -d 4 -p tcp -e 1040 -c 0 -i 8 -a 0 -x {0.0 5.0 5 ------- null}
+ -t 0.239348 -s 4 -d 5 -p tcp -e 1040 -c 0 -i 8 -a 0 -x {0.0 5.0 5 ------- null}
r -t 0.24014 -s 4 -d 5 -p tcp -e 1040 -c 0 -i 6 -a 0 -x {0.0 5.0 3 ------- null}
r -t 0.24316 -s 6 -d 1 -p ack -e 40 -c 0 -i 9 -a 0 -x {3.0 1.0 0 ------- null}
h -t 0.24316 -s 1 -d 6 -p tcp -e 1040 -c 0 -i 10 -a 0 -x {1.0 3.0 1 ------- null}
h -t 0.24316 -s 1 -d 6 -p tcp -e 1040 -c 0 -i 11 -a 0 -x {1.0 3.0 2 ------- null}
- -t 0.24746 -s 4 -d 5 -p tcp -e 1040 -c 0 -i 8 -a 0 -x {0.0 5.0 5 ------- null}
h -t 0.24746 -s 4 -d 5 -p tcp -e 1040 -c 0 -i 8 -a 0 -x {0.0 5.0 -1 ------- null}
r -t 0.24846 -s 4 -d 5 -p tcp -e 1040 -c 0 -i 7 -a 0 -x {0.0 5.0 4 ------- null}
+ -t 0.24846 -s 5 -d 4 -p ack -e 40 -c 0 -i 12 -a 0 -x {5.0 0.0 4 ------- null}
- -t 0.24846 -s 5 -d 4 -p ack -e 40 -c 0 -i 12 -a 0 -x {5.0 0.0 4 ------- null}
h -t 0.24846 -s 5 -d 4 -p ack -e 40 -c 0 -i 12 -a 0 -x {5.0 0.0 -1 ------- null}
r -t 0.24978 -s 5 -d 4 -p ack -e 40 -c 0 -i 12 -a 0 -x {5.0 0.0 4 ------- null}
h -t 0.24978 -s 4 -d 6 -p ack -e 40 -c 0 -i 12 -a 0 -x {5.0 0.0 4 ------- null}
+ -t 0.25316 -s 1 -d 6 -p tcp -e 1040 -c 0 -i 10 -a 0 -x {1.0 3.0 1 ------- null}
- -t 0.25316 -s 1 -d 6 -p tcp -e 1040 -c 0 -i 10 -a 0 -x {1.0 3.0 1 ------- null}
h -t 0.25316 -s 1 -d 6 -p tcp -e 1040 -c 0 -i 10 -a 0 -x {1.0 3.0 -1 ------- null}
+ -t 0.25316 -s 1 -d 6 -p tcp -e 1040 -c 0 -i 11 -a 0 -x {1.0 3.0 2 ------- null}
r -t 0.25678 -s 4 -d 5 -p tcp -e 1040 -c 0 -i 8 -a 0 -x {0.0 5.0 5 ------- null}
- -t 0.257424 -s 1 -d 6 -p tcp -e 1040 -c 0 -i 11 -a 0 -x {1.0 3.0 2 ------- null}
h -t 0.257424 -s 1 -d 6 -p tcp -e 1040 -c 0 -i 11 -a 0 -x {1.0 3.0 -1 ------- null}
+ -t 0.25978 -s 4 -d 6 -p ack -e 40 -c 0 -i 12 -a 0 -x {5.0 0.0 4 ------- null}
- -t 0.25978 -s 4 -d 6 -p ack -e 40 -c 0 -i 12 -a 0 -x {5.0 0.0 4 ------- null}
h -t 0.25978 -s 4 -d 6 -p ack -e 40 -c 0 -i 12 -a 0 -x {5.0 0.0 -1 ------- null}
r -t 0.26738 -s 6 -d 2 -p tcp -e 1040 -c 0 -i 10 -a 0 -x {1.0 3.0 1 ------- null}
+ -t 0.26738 -s 2 -d 3 -p tcp -e 1040 -c 0 -i 10 -a 0 -x {1.0 3.0 1 ------- null}
- -t 0.26738 -s 2 -d 3 -p tcp -e 1040 -c 0 -i 10 -a 0 -x {1.0 3.0 1 ------- null}
h -t 0.26738 -s 2 -d 3 -p tcp -e 1040 -c 0 -i 10 -a 0 -x {1.0 3.0 -1 ------- null}
r -t 0.271644 -s 6 -d 2 -p tcp -e 1040 -c 0 -i 11 -a 0 -x {1.0 3.0 2 ------- null}
+ -t 0.271644 -s 2 -d 3 -p tcp -e 1040 -c 0 -i 11 -a 0 -x {1.0 3.0 2 ------- null}
r -t 0.271952 -s 6 -d 0 -p ack -e 40 -c 0 -i 12 -a 0 -x {5.0 0.0 4 ------- null}
h -t 0.271952 -s 0 -d 6 -p tcp -e 1040 -c 0 -i 13 -a 0 -x {0.0 5.0 6 ------- null}
h -t 0.271952 -s 0 -d 6 -p tcp -e 1040 -c 0 -i 14 -a 0 -x {0.0 5.0 7 ------- null}
h -t 0.271952 -s 0 -d 6 -p tcp -e 1040 -c 0 -i 15 -a 0 -x {0.0 5.0 8 ------- null}
- -t 0.2757 -s 2 -d 3 -p tcp -e 1040 -c 0 -i 11 -a 0 -x {1.0 3.0 2 ------- null}
h -t 0.2757 -s 2 -d 3 -p tcp -e 1040 -c 0 -i 11 -a 0 -x {1.0 3.0 -1 ------- null}
r -t 0.2767 -s 2 -d 3 -p tcp -e 1040 -c 0 -i 10 -a 0 -x {1.0 3.0 1 ------- null}
+ -t 0.2767 -s 3 -d 2 -p ack -e 40 -c 0 -i 16 -a 0 -x {3.0 1.0 1 ------- null}
- -t 0.2767 -s 3 -d 2 -p ack -e 40 -c 0 -i 16 -a 0 -x {3.0 1.0 1 ------- null}
h -t 0.2767 -s 3 -d 2 -p ack -e 40 -c 0 -i 16 -a 0 -x {3.0 1.0 -1 ------- null}
r -t 0.27802 -s 3 -d 2 -p ack -e 40 -c 0 -i 16 -a 0 -x {3.0 1.0 1 ------- null}
h -t 0.27802 -s 2 -d 6 -p ack -e 40 -c 0 -i 16 -a 0 -x {3.0 1.0 1 ------- null}
+ -t 0.281952 -s 0 -d 6 -p tcp -e 1040 -c 0 -i 13 -a 0 -x {0.0 5.0 6 ------- null}
- -t 0.281952 -s 0 -d 6 -p tcp -e 1040 -c 0 -i 13 -a 0 -x {0.0 5.0 6 ------- null}
h -t 0.281952 -s 0 -d 6 -p tcp -e 1040 -c 0 -i 13 -a 0 -x {0.0 5.0 -1 ------- null}
+ -t 0.281952 -s 0 -d 6 -p tcp -e 1040 -c 0 -i 14 -a 0 -x {0.0 5.0 7 ------- null}
+ -t 0.281952 -s 0 -d 6 -p tcp -e 1040 -c 0 -i 15 -a 0 -x {0.0 5.0 8 ------- null}
r -t 0.28502 -s 2 -d 3 -p tcp -e 1040 -c 0 -i 11 -a 0 -x {1.0 3.0 2 ------- null}
+ -t 0.28502 -s 3 -d 2 -p ack -e 40 -c 0 -i 17 -a 0 -x {3.0 1.0 2 ------- null}
- -t 0.28502 -s 3 -d 2 -p ack -e 40 -c 0 -i 17 -a 0 -x {3.0 1.0 2 ------- null}
h -t 0.28502 -s 3 -d 2 -p ack -e 40 -c 0 -i 17 -a 0 -x {3.0 1.0 -1 ------- null}
- -t 0.286216 -s 0 -d 6 -p tcp -e 1040 -c 0 -i 14 -a 0 -x {0.0 5.0 7 ------- null}
h -t 0.286216 -s 0 -d 6 -p tcp -e 1040 -c 0 -i 14 -a 0 -x {0.0 5.0 -1 ------- null}
r -t 0.28634 -s 3 -d 2 -p ack -e 40 -c 0 -i 17 -a 0 -x {3.0 1.0 2 ------- null}
h -t 0.28634 -s 2 -d 6 -p ack -e 40 -c 0 -i 17 -a 0 -x {3.0 1.0 2 ------- null}
+ -t 0.28802 -s 2 -d 6 -p ack -e 40 -c 0 -i 16 -a 0 -x {3.0 1.0 1 ------- null}
- -t 0.28802 -s 2 -d 6 -p ack -e 40 -c 0 -i 16 -a 0 -x {3.0 1.0 1 ------- null}
h -t 0.28802 -s 2 -d 6 -p ack -e 40 -c 0 -i 16 -a 0 -x {3.0 1.0 -1 ------- null}
- -t 0.29048 -s 0 -d 6 -p tcp -e 1040 -c 0 -i 15 -a 0 -x {0.0 5.0 8 ------- null}
h -t 0.29048 -s 0 -d 6 -p tcp -e 1040 -c 0 -i 15 -a 0 -x {0.0 5.0 -1 ------- null}
r -t 0.296172 -s 6 -d 4 -p tcp -e 1040 -c 0 -i 13 -a 0 -x {0.0 5.0 6 ------- null}
+ -t 0.296172 -s 4 -d 5 -p tcp -e 1040 -c 0 -i 13 -a 0 -x {0.0 5.0 6 ------- null}
- -t 0.296172 -s 4 -d 5 -p tcp -e 1040 -c 0 -i 13 -a 0 -x {0.0 5.0 6 ------- null}
h -t 0.296172 -s 4 -d 5 -p tcp -e 1040 -c 0 -i 13 -a 0 -x {0.0 5.0 -1 ------- null}
+ -t 0.29634 -s 2 -d 6 -p ack -e 40 -c 0 -i 17 -a 0 -x {3.0 1.0 2 ------- null}
- -t 0.29634 -s 2 -d 6 -p ack -e 40 -c 0 -i 17 -a 0 -x {3.0 1.0 2 ------- null}
h -t 0.29634 -s 2 -d 6 -p ack -e 40 -c 0 -i 17 -a 0 -x {3.0 1.0 -1 ------- null}
r -t 0.300436 -s 6 -d 4 -p tcp -e 1040 -c 0 -i 14 -a 0 -x {0.0 5.0 7 ------- null}
+ -t 0.300436 -s 4 -d 5 -p tcp -e 1040 -c 0 -i 14 -a 0 -x {0.0 5.0 7 ------- null}
- -t 0.304492 -s 4 -d 5 -p tcp -e 1040 -c 0 -i 14 -a 0 -x {0.0 5.0 7 ------- null}
h -t 0.304492 -s 4 -d 5 -p tcp -e 1040 -c 0 -i 14 -a 0 -x {0.0 5.0 -1 ------- null}
r -t 0.304772 -s 6 -d 4 -p tcp -e 1040 -c 0 -i 15 -a 0 -x {0.0 5.0 8 ------- null}
+ -t 0.304772 -s 4 -d 5 -p tcp -e 1040 -c 0 -i 15 -a 0 -x {0.0 5.0 8 ------- null}
r -t 0.30508 -s 6 -d 1 -p ack -e 40 -c 0 -i 16 -a 0 -x {3.0 1.0 1 ------- null}
h -t 0.30508 -s 1 -d 6 -p tcp -e 1040 -c 0 -i 18 -a 0 -x {1.0 3.0 3 ------- null}
h -t 0.30508 -s 1 -d 6 -p tcp -e 1040 -c 0 -i 19 -a 0 -x {1.0 3.0 4 ------- null}
r -t 0.305492 -s 4 -d 5 -p tcp -e 1040 -c 0 -i 13 -a 0 -x {0.0 5.0 6 ------- null}
+ -t 0.305492 -s 5 -d 4 -p ack -e 40 -c 0 -i 20 -a 0 -x {5.0 0.0 6 ------- null}
- -t 0.305492 -s 5 -d 4 -p ack -e 40 -c 0 -i 20 -a 0 -x {5.0 0.0 6 ------- null}
h -t 0.305492 -s 5 -d 4 -p ack -e 40 -c 0 -i 20 -a 0 -x {5.0 0.0 -1 ------- null}
r -t 0.3066 -s 6 -d 1 -p ack -e 40 -c 0 -i 17 -a 0 -x {3.0 1.0 2 ------- null}
h -t 0.3066 -s 1 -d 6 -p tcp -e 1040 -c 0 -i 21 -a 0 -x {1.0 3.0 5 ------- null}
h -t 0.3066 -s 1 -d 6 -p tcp -e 1040 -c 0 -i 22 -a 0 -x {1.0 3.0 6 ------- null}
r -t 0.306812 -s 5 -d 4 -p ack -e 40 -c 0 -i 20 -a 0 -x {5.0 0.0 6 ------- null}
h -t 0.306812 -s 4 -d 6 -p ack -e 40 -c 0 -i 20 -a 0 -x {5.0 0.0 6 ------- null}
- -t 0.312812 -s 4 -d 5 -p tcp -e 1040 -c 0 -i 15 -a 0 -x {0.0 5.0 8 ------- null}
h -t 0.312812 -s 4 -d 5 -p tcp -e 1040 -c 0 -i 15 -a 0 -x {0.0 5.0 -1 ------- null}
r -t 0.313812 -s 4 -d 5 -p tcp -e 1040 -c 0 -i 14 -a 0 -x {0.0 5.0 7 ------- null}
+ -t 0.31508 -s 1 -d 6 -p tcp -e 1040 -c 0 -i 18 -a 0 -x {1.0 3.0 3 ------- null}
- -t 0.31508 -s 1 -d 6 -p tcp -e 1040 -c 0 -i 18 -a 0 -x {1.0 3.0 3 ------- null}
h -t 0.31508 -s 1 -d 6 -p tcp -e 1040 -c 0 -i 18 -a 0 -x {1.0 3.0 -1 ------- null}
+ -t 0.31508 -s 1 -d 6 -p tcp -e 1040 -c 0 -i 19 -a 0 -x {1.0 3.0 4 ------- null}
+ -t 0.3166 -s 1 -d 6 -p tcp -e 1040 -c 0 -i 21 -a 0 -x {1.0 3.0 5 ------- null}
+ -t 0.3166 -s 1 -d 6 -p tcp -e 1040 -c 0 -i 22 -a 0 -x {1.0 3.0 6 ------- null}
+ -t 0.316812 -s 4 -d 6 -p ack -e 40 -c 0 -i 20 -a 0 -x {5.0 0.0 6 ------- null}
- -t 0.316812 -s 4 -d 6 -p ack -e 40 -c 0 -i 20 -a 0 -x {5.0 0.0 6 ------- null}
h -t 0.316812 -s 4 -d 6 -p ack -e 40 -c 0 -i 20 -a 0 -x {5.0 0.0 -1 ------- null}
- -t 0.319344 -s 1 -d 6 -p tcp -e 1040 -c 0 -i 19 -a 0 -x {1.0 3.0 4 ------- null}
h -t 0.319344 -s 1 -d 6 -p tcp -e 1040 -c 0 -i 19 -a 0 -x {1.0 3.0 -1 ------- null}
r -t 0.322132 -s 4 -d 5 -p tcp -e 1040 -c 0 -i 15 -a 0 -x {0.0 5.0 8 ------- null}
+ -t 0.322132 -s 5 -d 4 -p ack -e 40 -c 0 -i 23 -a 0 -x {5.0 0.0 8 ------- null}
- -t 0.322132 -s 5 -d 4 -p ack -e 40 -c 0 -i 23 -a 0 -x {5.0 0.0 8 ------- null}
h -t 0.322132 -s 5 -d 4 -p ack -e 40 -c 0 -i 23 -a 0 -x {5.0 0.0 -1 ------- null}
r -t 0.323452 -s 5 -d 4 -p ack -e 40 -c 0 -i 23 -a 0 -x {5.0 0.0 8 ------- null}
h -t 0.323452 -s 4 -d 6 -p ack -e 40 -c 0 -i 23 -a 0 -x {5.0 0.0 8 ------- null}
- -t 0.324312 -s 1 -d 6 -p tcp -e 1040 -c 0 -i 21 -a 0 -x {1.0 3.0 5 ------- null}
h -t 0.324312 -s 1 -d 6 -p tcp -e 1040 -c 0 -i 21 -a 0 -x {1.0 3.0 -1 ------- null}
- -t 0.328576 -s 1 -d 6 -p tcp -e 1040 -c 0 -i 22 -a 0 -x {1.0 3.0 6 ------- null}
h -t 0.328576 -s 1 -d 6 -p tcp -e 1040 -c 0 -i 22 -a 0 -x {1.0 3.0 -1 ------- null}
r -t 0.3293 -s 6 -d 2 -p tcp -e 1040 -c 0 -i 18 -a 0 -x {1.0 3.0 3 ------- null}
+ -t 0.3293 -s 2 -d 3 -p tcp -e 1040 -c 0 -i 18 -a 0 -x {1.0 3.0 3 ------- null}
- -t 0.3293 -s 2 -d 3 -p tcp -e 1040 -c 0 -i 18 -a 0 -x {1.0 3.0 3 ------- null}
h -t 0.3293 -s 2 -d 3 -p tcp -e 1040 -c 0 -i 18 -a 0 -x {1.0 3.0 -1 ------- null}
r -t 0.33 -s 6 -d 0 -p ack -e 40 -c 0 -i 20 -a 0 -x {5.0 0.0 6 ------- null}
h -t 0.33 -s 0 -d 6 -p tcp -e 1040 -c 0 -i 24 -a 0 -x {0.0 5.0 9 ------- null}
h -t 0.33 -s 0 -d 6 -p tcp -e 1040 -c 0 -i 25 -a 0 -x {0.0 5.0 10 ------- null}
h -t 0.33 -s 0 -d 6 -p tcp -e 1040 -c 0 -i 26 -a 0 -x {0.0 5.0 11 ------- null}
+ -t 0.333452 -s 4 -d 6 -p ack -e 40 -c 0 -i 23 -a 0 -x {5.0 0.0 8 ------- null}
- -t 0.333452 -s 4 -d 6 -p ack -e 40 -c 0 -i 23 -a 0 -x {5.0 0.0 8 ------- null}
h -t 0.333452 -s 4 -d 6 -p ack -e 40 -c 0 -i 23 -a 0 -x {5.0 0.0 -1 ------- null}
r -t 0.334268 -s 6 -d 2 -p tcp -e 1040 -c 0 -i 19 -a 0 -x {1.0 3.0 4 ------- null}
+ -t 0.334268 -s 2 -d 3 -p tcp -e 1040 -c 0 -i 19 -a 0 -x {1.0 3.0 4 ------- null}
- -t 0.33762 -s 2 -d 3 -p tcp -e 1040 -c 0 -i 19 -a 0 -x {1.0 3.0 4 ------- null}
h -t 0.33762 -s 2 -d 3 -p tcp -e 1040 -c 0 -i 19 -a 0 -x {1.0 3.0 -1 ------- null}
r -t 0.338532 -s 6 -d 2 -p tcp -e 1040 -c 0 -i 21 -a 0 -x {1.0 3.0 5 ------- null}
+ -t 0.338532 -s 2 -d 3 -p tcp -e 1040 -c 0 -i 21 -a 0 -x {1.0 3.0 5 ------- null}
r -t 0.33862 -s 2 -d 3 -p tcp -e 1040 -c 0 -i 18 -a 0 -x {1.0 3.0 3 ------- null}
+ -t 0.33862 -s 3 -d 2 -p ack -e 40 -c 0 -i 27 -a 0 -x {3.0 1.0 3 ------- null}
- -t 0.33862 -s 3 -d 2 -p ack -e 40 -c 0 -i 27 -a 0 -x {3.0 1.0 3 ------- null}
h -t 0.33862 -s 3 -d 2 -p ack -e 40 -c 0 -i 27 -a 0 -x {3.0 1.0 -1 ------- null}
r -t 0.33994 -s 3 -d 2 -p ack -e 40 -c 0 -i 27 -a 0 -x {3.0 1.0 3 ------- null}
h -t 0.33994 -s 2 -d 6 -p ack -e 40 -c 0 -i 27 -a 0 -x {3.0 1.0 3 ------- null}
+ -t 0.34 -s 0 -d 6 -p tcp -e 1040 -c 0 -i 24 -a 0 -x {0.0 5.0 9 ------- null}
- -t 0.34 -s 0 -d 6 -p tcp -e 1040 -c 0 -i 24 -a 0 -x {0.0 5.0 9 ------- null}
h -t 0.34 -s 0 -d 6 -p tcp -e 1040 -c 0 -i 24 -a 0 -x {0.0 5.0 -1 ------- null}
+ -t 0.34 -s 0 -d 6 -p tcp -e 1040 -c 0 -i 25 -a 0 -x {0.0 5.0 10 ------- null}
+ -t 0.34 -s 0 -d 6 -p tcp -e 1040 -c 0 -i 26 -a 0 -x {0.0 5.0 11 ------- null}
r -t 0.342796 -s 6 -d 2 -p tcp -e 1040 -c 0 -i 22 -a 0 -x {1.0 3.0 6 ------- null}
+ -t 0.342796 -s 2 -d 3 -p tcp -e 1040 -c 0 -i 22 -a 0 -x {1.0 3.0 6 ------- null}
r -t 0.343712 -s 6 -d 0 -p ack -e 40 -c 0 -i 23 -a 0 -x {5.0 0.0 8 ------- null}
h -t 0.343712 -s 0 -d 6 -p tcp -e 1040 -c 0 -i 28 -a 0 -x {0.0 5.0 12 ------- null}
h -t 0.343712 -s 0 -d 6 -p tcp -e 1040 -c 0 -i 29 -a 0 -x {0.0 5.0 13 ------- null}
h -t 0.343712 -s 0 -d 6 -p tcp -e 1040 -c 0 -i 30 -a 0 -x {0.0 5.0 14 ------- null}
- -t 0.344264 -s 0 -d 6 -p tcp -e 1040 -c 0 -i 25 -a 0 -x {0.0 5.0 10 ------- null}
h -t 0.344264 -s 0 -d 6 -p tcp -e 1040 -c 0 -i 25 -a 0 -x {0.0 5.0 -1 ------- null}
- -t 0.34594 -s 2 -d 3 -p tcp -e 1040 -c 0 -i 21 -a 0 -x {1.0 3.0 5 ------- null}
h -t 0.34594 -s 2 -d 3 -p tcp -e 1040 -c 0 -i 21 -a 0 -x {1.0 3.0 -1 ------- null}
r -t 0.34694 -s 2 -d 3 -p tcp -e 1040 -c 0 -i 19 -a 0 -x {1.0 3.0 4 ------- null}
+ -t 0.34694 -s 3 -d 2 -p ack -e 40 -c 0 -i 31 -a 0 -x {3.0 1.0 4 ------- null}
- -t 0.34694 -s 3 -d 2 -p ack -e 40 -c 0 -i 31 -a 0 -x {3.0 1.0 4 ------- null}
h -t 0.34694 -s 3 -d 2 -p ack -e 40 -c 0 -i 31 -a 0 -x {3.0 1.0 -1 ------- null}
r -t 0.34826 -s 3 -d 2 -p ack -e 40 -c 0 -i 31 -a 0 -x {3.0 1.0 4 ------- null}
h -t 0.34826 -s 2 -d 6 -p ack -e 40 -c 0 -i 31 -a 0 -x {3.0 1.0 4 ------- null}
- -t 0.348528 -s 0 -d 6 -p tcp -e 1040 -c 0 -i 26 -a 0 -x {0.0 5.0 11 ------- null}
h -t 0.348528 -s 0 -d 6 -p tcp -e 1040 -c 0 -i 26 -a 0 -x {0.0 5.0 -1 ------- null}
+ -t 0.34994 -s 2 -d 6 -p ack -e 40 -c 0 -i 27 -a 0 -x {3.0 1.0 3 ------- null}
- -t 0.34994 -s 2 -d 6 -p ack -e 40 -c 0 -i 27 -a 0 -x {3.0 1.0 3 ------- null}
h -t 0.34994 -s 2 -d 6 -p ack -e 40 -c 0 -i 27 -a 0 -x {3.0 1.0 -1 ------- null}
+ -t 0.353712 -s 0 -d 6 -p tcp -e 1040 -c 0 -i 28 -a 0 -x {0.0 5.0 12 ------- null}
- -t 0.353712 -s 0 -d 6 -p tcp -e 1040 -c 0 -i 28 -a 0 -x {0.0 5.0 12 ------- null}
h -t 0.353712 -s 0 -d 6 -p tcp -e 1040 -c 0 -i 28 -a 0 -x {0.0 5.0 -1 ------- null}
+ -t 0.353712 -s 0 -d 6 -p tcp -e 1040 -c 0 -i 29 -a 0 -x {0.0 5.0 13 ------- null}
+ -t 0.353712 -s 0 -d 6 -p tcp -e 1040 -c 0 -i 30 -a 0 -x {0.0 5.0 14 ------- null}
r -t 0.35422 -s 6 -d 4 -p tcp -e 1040 -c 0 -i 24 -a 0 -x {0.0 5.0 9 ------- null}
+ -t 0.35422 -s 4 -d 5 -p tcp -e 1040 -c 0 -i 24 -a 0 -x {0.0 5.0 9 ------- null}
- -t 0.35422 -s 4 -d 5 -p tcp -e 1040 -c 0 -i 24 -a 0 -x {0.0 5.0 9 ------- null}
h -t 0.35422 -s 4 -d 5 -p tcp -e 1040 -c 0 -i 24 -a 0 -x {0.0 5.0 -1 ------- null}
- -t 0.35426 -s 2 -d 3 -p tcp -e 1040 -c 0 -i 22 -a 0 -x {1.0 3.0 6 ------- null}
h -t 0.35426 -s 2 -d 3 -p tcp -e 1040 -c 0 -i 22 -a 0 -x {1.0 3.0 -1 ------- null}
r -t 0.35526 -s 2 -d 3 -p tcp -e 1040 -c 0 -i 21 -a 0 -x {1.0 3.0 5 ------- null}
+ -t 0.35526 -s 3 -d 2 -p ack -e 40 -c 0 -i 32 -a 0 -x {3.0 1.0 5 ------- null}
- -t 0.35526 -s 3 -d 2 -p ack -e 40 -c 0 -i 32 -a 0 -x {3.0 1.0 5 ------- null}
h -t 0.35526 -s 3 -d 2 -p ack -e 40 -c 0 -i 32 -a 0 -x {3.0 1.0 -1 ------- null}
r -t 0.35658 -s 3 -d 2 -p ack -e 40 -c 0 -i 32 -a 0 -x {3.0 1.0 5 ------- null}
h -t 0.35658 -s 2 -d 6 -p ack -e 40 -c 0 -i 32 -a 0 -x {3.0 1.0 5 ------- null}
- -t 0.357976 -s 0 -d 6 -p tcp -e 1040 -c 0 -i 29 -a 0 -x {0.0 5.0 13 ------- null}
h -t 0.357976 -s 0 -d 6 -p tcp -e 1040 -c 0 -i 29 -a 0 -x {0.0 5.0 -1 ------- null}
+ -t 0.35826 -s 2 -d 6 -p ack -e 40 -c 0 -i 31 -a 0 -x {3.0 1.0 4 ------- null}
- -t 0.35826 -s 2 -d 6 -p ack -e 40 -c 0 -i 31 -a 0 -x {3.0 1.0 4 ------- null}
h -t 0.35826 -s 2 -d 6 -p ack -e 40 -c 0 -i 31 -a 0 -x {3.0 1.0 -1 ------- null}
r -t 0.358484 -s 6 -d 4 -p tcp -e 1040 -c 0 -i 25 -a 0 -x {0.0 5.0 10 ------- null}
+ -t 0.358484 -s 4 -d 5 -p tcp -e 1040 -c 0 -i 25 -a 0 -x {0.0 5.0 10 ------- null}
- -t 0.36224 -s 0 -d 6 -p tcp -e 1040 -c 0 -i 30 -a 0 -x {0.0 5.0 14 ------- null}
h -t 0.36224 -s 0 -d 6 -p tcp -e 1040 -c 0 -i 30 -a 0 -x {0.0 5.0 -1 ------- null}
- -t 0.36254 -s 4 -d 5 -p tcp -e 1040 -c 0 -i 25 -a 0 -x {0.0 5.0 10 ------- null}
h -t 0.36254 -s 4 -d 5 -p tcp -e 1040 -c 0 -i 25 -a 0 -x {0.0 5.0 -1 ------- null}
r -t 0.362748 -s 6 -d 4 -p tcp -e 1040 -c 0 -i 26 -a 0 -x {0.0 5.0 11 ------- null}
+ -t 0.362748 -s 4 -d 5 -p tcp -e 1040 -c 0 -i 26 -a 0 -x {0.0 5.0 11 ------- null}
r -t 0.363056 -s 6 -d 1 -p ack -e 40 -c 0 -i 27 -a 0 -x {3.0 1.0 3 ------- null}
h -t 0.363056 -s 1 -d 6 -p tcp -e 1040 -c 0 -i 33 -a 0 -x {1.0 3.0 7 ------- null}
h -t 0.363056 -s 1 -d 6 -p tcp -e 1040 -c 0 -i 34 -a 0 -x {1.0 3.0 8 ------- null}
r -t 0.36354 -s 4 -d 5 -p tcp -e 1040 -c 0 -i 24 -a 0 -x {0.0 5.0 9 ------- null}
r -t 0.36358 -s 2 -d 3 -p tcp -e 1040 -c 0 -i 22 -a 0 -x {1.0 3.0 6 ------- null}
+ -t 0.36358 -s 3 -d 2 -p ack -e 40 -c 0 -i 35 -a 0 -x {3.0 1.0 6 ------- null}
- -t 0.36358 -s 3 -d 2 -p ack -e 40 -c 0 -i 35 -a 0 -x {3.0 1.0 6 ------- null}
h -t 0.36358 -s 3 -d 2 -p ack -e 40 -c 0 -i 35 -a 0 -x {3.0 1.0 -1 ------- null}
r -t 0.3649 -s 3 -d 2 -p ack -e 40 -c 0 -i 35 -a 0 -x {3.0 1.0 6 ------- null}
h -t 0.3649 -s 2 -d 6 -p ack -e 40 -c 0 -i 35 -a 0 -x {3.0 1.0 6 ------- null}
+ -t 0.36658 -s 2 -d 6 -p ack -e 40 -c 0 -i 32 -a 0 -x {3.0 1.0 5 ------- null}
- -t 0.36658 -s 2 -d 6 -p ack -e 40 -c 0 -i 32 -a 0 -x {3.0 1.0 5 ------- null}
h -t 0.36658 -s 2 -d 6 -p ack -e 40 -c 0 -i 32 -a 0 -x {3.0 1.0 -1 ------- null}
r -t 0.367932 -s 6 -d 4 -p tcp -e 1040 -c 0 -i 28 -a 0 -x {0.0 5.0 12 ------- null}
+ -t 0.367932 -s 4 -d 5 -p tcp -e 1040 -c 0 -i 28 -a 0 -x {0.0 5.0 12 ------- null}
- -t 0.37086 -s 4 -d 5 -p tcp -e 1040 -c 0 -i 26 -a 0 -x {0.0 5.0 11 ------- null}
h -t 0.37086 -s 4 -d 5 -p tcp -e 1040 -c 0 -i 26 -a 0 -x {0.0 5.0 -1 ------- null}
r -t 0.37186 -s 4 -d 5 -p tcp -e 1040 -c 0 -i 25 -a 0 -x {0.0 5.0 10 ------- null}
+ -t 0.37186 -s 5 -d 4 -p ack -e 40 -c 0 -i 36 -a 0 -x {5.0 0.0 10 ------- null}
- -t 0.37186 -s 5 -d 4 -p ack -e 40 -c 0 -i 36 -a 0 -x {5.0 0.0 10 ------- null}
h -t 0.37186 -s 5 -d 4 -p ack -e 40 -c 0 -i 36 -a 0 -x {5.0 0.0 -1 ------- null}
r -t 0.372196 -s 6 -d 4 -p tcp -e 1040 -c 0 -i 29 -a 0 -x {0.0 5.0 13 ------- null}
+ -t 0.372196 -s 4 -d 5 -p tcp -e 1040 -c 0 -i 29 -a 0 -x {0.0 5.0 13 ------- null}
r -t 0.372568 -s 6 -d 1 -p ack -e 40 -c 0 -i 31 -a 0 -x {3.0 1.0 4 ------- null}
h -t 0.372568 -s 1 -d 6 -p tcp -e 1040 -c 0 -i 37 -a 0 -x {1.0 3.0 9 ------- null}
h -t 0.372568 -s 1 -d 6 -p tcp -e 1040 -c 0 -i 38 -a 0 -x {1.0 3.0 10 ------- null}
+ -t 0.373056 -s 1 -d 6 -p tcp -e 1040 -c 0 -i 33 -a 0 -x {1.0 3.0 7 ------- null}
- -t 0.373056 -s 1 -d 6 -p tcp -e 1040 -c 0 -i 33 -a 0 -x {1.0 3.0 7 ------- null}
h -t 0.373056 -s 1 -d 6 -p tcp -e 1040 -c 0 -i 33 -a 0 -x {1.0 3.0 -1 ------- null}
+ -t 0.373056 -s 1 -d 6 -p tcp -e 1040 -c 0 -i 34 -a 0 -x {1.0 3.0 8 ------- null}
r -t 0.37318 -s 5 -d 4 -p ack -e 40 -c 0 -i 36 -a 0 -x {5.0 0.0 10 ------- null}
h -t 0.37318 -s 4 -d 6 -p ack -e 40 -c 0 -i 36 -a 0 -x {5.0 0.0 10 ------- null}
+ -t 0.3749 -s 2 -d 6 -p ack -e 40 -c 0 -i 35 -a 0 -x {3.0 1.0 6 ------- null}
- -t 0.3749 -s 2 -d 6 -p ack -e 40 -c 0 -i 35 -a 0 -x {3.0 1.0 6 ------- null}
h -t 0.3749 -s 2 -d 6 -p ack -e 40 -c 0 -i 35 -a 0 -x {3.0 1.0 -1 ------- null}
r -t 0.376836 -s 6 -d 4 -p tcp -e 1040 -c 0 -i 30 -a 0 -x {0.0 5.0 14 ------- null}
+ -t 0.376836 -s 4 -d 5 -p tcp -e 1040 -c 0 -i 30 -a 0 -x {0.0 5.0 14 ------- null}
d -t 0.376836 -s 4 -d 5 -p tcp -e 1040 -c 0 -i 30 -a 0 -x {0.0 5.0 14 ------- null}
r -t 0.377144 -s 6 -d 1 -p ack -e 40 -c 0 -i 32 -a 0 -x {3.0 1.0 5 ------- null}
h -t 0.377144 -s 1 -d 6 -p tcp -e 1040 -c 0 -i 39 -a 0 -x {1.0 3.0 11 ------- null}
h -t 0.377144 -s 1 -d 6 -p tcp -e 1040 -c 0 -i 40 -a 0 -x {1.0 3.0 12 ------- null}
- -t 0.37732 -s 1 -d 6 -p tcp -e 1040 -c 0 -i 34 -a 0 -x {1.0 3.0 8 ------- null}
h -t 0.37732 -s 1 -d 6 -p tcp -e 1040 -c 0 -i 34 -a 0 -x {1.0 3.0 -1 ------- null}
- -t 0.37918 -s 4 -d 5 -p tcp -e 1040 -c 0 -i 28 -a 0 -x {0.0 5.0 12 ------- null}
h -t 0.37918 -s 4 -d 5 -p tcp -e 1040 -c 0 -i 28 -a 0 -x {0.0 5.0 -1 ------- null}
r -t 0.38018 -s 4 -d 5 -p tcp -e 1040 -c 0 -i 26 -a 0 -x {0.0 5.0 11 ------- null}
+ -t 0.382568 -s 1 -d 6 -p tcp -e 1040 -c 0 -i 37 -a 0 -x {1.0 3.0 9 ------- null}
- -t 0.382568 -s 1 -d 6 -p tcp -e 1040 -c 0 -i 37 -a 0 -x {1.0 3.0 9 ------- null}
h -t 0.382568 -s 1 -d 6 -p tcp -e 1040 -c 0 -i 37 -a 0 -x {1.0 3.0 -1 ------- null}
+ -t 0.382568 -s 1 -d 6 -p tcp -e 1040 -c 0 -i 38 -a 0 -x {1.0 3.0 10 ------- null}
+ -t 0.38318 -s 4 -d 6 -p ack -e 40 -c 0 -i 36 -a 0 -x {5.0 0.0 10 ------- null}
- -t 0.38318 -s 4 -d 6 -p ack -e 40 -c 0 -i 36 -a 0 -x {5.0 0.0 10 ------- null}
h -t 0.38318 -s 4 -d 6 -p ack -e 40 -c 0 -i 36 -a 0 -x {5.0 0.0 -1 ------- null}
- -t 0.386832 -s 1 -d 6 -p tcp -e 1040 -c 0 -i 38 -a 0 -x {1.0 3.0 10 ------- null}
h -t 0.386832 -s 1 -d 6 -p tcp -e 1040 -c 0 -i 38 -a 0 -x {1.0 3.0 -1 ------- null}
+ -t 0.387144 -s 1 -d 6 -p tcp -e 1040 -c 0 -i 39 -a 0 -x {1.0 3.0 11 ------- null}
+ -t 0.387144 -s 1 -d 6 -p tcp -e 1040 -c 0 -i 40 -a 0 -x {1.0 3.0 12 ------- null}
r -t 0.387276 -s 6 -d 2 -p tcp -e 1040 -c 0 -i 33 -a 0 -x {1.0 3.0 7 ------- null}
+ -t 0.387276 -s 2 -d 3 -p tcp -e 1040 -c 0 -i 33 -a 0 -x {1.0 3.0 7 ------- null}
- -t 0.387276 -s 2 -d 3 -p tcp -e 1040 -c 0 -i 33 -a 0 -x {1.0 3.0 7 ------- null}
h -t 0.387276 -s 2 -d 3 -p tcp -e 1040 -c 0 -i 33 -a 0 -x {1.0 3.0 -1 ------- null}
- -t 0.3875 -s 4 -d 5 -p tcp -e 1040 -c 0 -i 29 -a 0 -x {0.0 5.0 13 ------- null}
h -t 0.3875 -s 4 -d 5 -p tcp -e 1040 -c 0 -i 29 -a 0 -x {0.0 5.0 -1 ------- null}
r -t 0.38772 -s 6 -d 1 -p ack -e 40 -c 0 -i 35 -a 0 -x {3.0 1.0 6 ------- null}
h -t 0.38772 -s 1 -d 6 -p tcp -e 1040 -c 0 -i 41 -a 0 -x {1.0 3.0 13 ------- null}
h -t 0.38772 -s 1 -d 6 -p tcp -e 1040 -c 0 -i 42 -a 0 -x {1.0 3.0 14 ------- null}
r -t 0.3885 -s 4 -d 5 -p tcp -e 1040 -c 0 -i 28 -a 0 -x {0.0 5.0 12 ------- null}
+ -t 0.3885 -s 5 -d 4 -p ack -e 40 -c 0 -i 43 -a 0 -x {5.0 0.0 12 ------- null}
- -t 0.3885 -s 5 -d 4 -p ack -e 40 -c 0 -i 43 -a 0 -x {5.0 0.0 12 ------- null}
h -t 0.3885 -s 5 -d 4 -p ack -e 40 -c 0 -i 43 -a 0 -x {5.0 0.0 -1 ------- null}
r -t 0.38982 -s 5 -d 4 -p ack -e 40 -c 0 -i 43 -a 0 -x {5.0 0.0 12 ------- null}
h -t 0.38982 -s 4 -d 6 -p ack -e 40 -c 0 -i 43 -a 0 -x {5.0 0.0 12 ------- null}
- -t 0.391488 -s 1 -d 6 -p tcp -e 1040 -c 0 -i 39 -a 0 -x {1.0 3.0 11 ------- null}
h -t 0.391488 -s 1 -d 6 -p tcp -e 1040 -c 0 -i 39 -a 0 -x {1.0 3.0 -1 ------- null}
r -t 0.392444 -s 6 -d 2 -p tcp -e 1040 -c 0 -i 34 -a 0 -x {1.0 3.0 8 ------- null}
+ -t 0.392444 -s 2 -d 3 -p tcp -e 1040 -c 0 -i 34 -a 0 -x {1.0 3.0 8 ------- null}
- -t 0.395596 -s 2 -d 3 -p tcp -e 1040 -c 0 -i 34 -a 0 -x {1.0 3.0 8 ------- null}
h -t 0.395596 -s 2 -d 3 -p tcp -e 1040 -c 0 -i 34 -a 0 -x {1.0 3.0 -1 ------- null}
- -t 0.39608 -s 1 -d 6 -p tcp -e 1040 -c 0 -i 40 -a 0 -x {1.0 3.0 12 ------- null}
h -t 0.39608 -s 1 -d 6 -p tcp -e 1040 -c 0 -i 40 -a 0 -x {1.0 3.0 -1 ------- null}
r -t 0.396596 -s 2 -d 3 -p tcp -e 1040 -c 0 -i 33 -a 0 -x {1.0 3.0 7 ------- null}
+ -t 0.396596 -s 3 -d 2 -p ack -e 40 -c 0 -i 44 -a 0 -x {3.0 1.0 7 ------- null}
- -t 0.396596 -s 3 -d 2 -p ack -e 40 -c 0 -i 44 -a 0 -x {3.0 1.0 7 ------- null}
h -t 0.396596 -s 3 -d 2 -p ack -e 40 -c 0 -i 44 -a 0 -x {3.0 1.0 -1 ------- null}
r -t 0.396788 -s 6 -d 2 -p tcp -e 1040 -c 0 -i 37 -a 0 -x {1.0 3.0 9 ------- null}
+ -t 0.396788 -s 2 -d 3 -p tcp -e 1040 -c 0 -i 37 -a 0 -x {1.0 3.0 9 ------- null}
r -t 0.39682 -s 4 -d 5 -p tcp -e 1040 -c 0 -i 29 -a 0 -x {0.0 5.0 13 ------- null}
+ -t 0.39772 -s 1 -d 6 -p tcp -e 1040 -c 0 -i 41 -a 0 -x {1.0 3.0 13 ------- null}
+ -t 0.39772 -s 1 -d 6 -p tcp -e 1040 -c 0 -i 42 -a 0 -x {1.0 3.0 14 ------- null}
r -t 0.397916 -s 3 -d 2 -p ack -e 40 -c 0 -i 44 -a 0 -x {3.0 1.0 7 ------- null}