V -t * -v 1.0a5 -a 0
A -t * -n 1 -p 0 -o 0x7fffffff -c 30 -a 1
A -t * -h 1 -m 1073741823 -s 0
n -t * -a 4 -s 4 -S UP -v circle -c black -i black
n -t * -a 0 -s 0 -S UP -v circle -c black -i black
n -t * -a 5 -s 5 -S UP -v circle -c black -i black
n -t * -a 1 -s 1 -S UP -v circle -c black -i black
n -t * -a 2 -s 2 -S UP -v circle -c black -i black
n -t * -a 3 -s 3 -S UP -v circle -c black -i black
l -t * -s 2 -d 3 -S UP -r 1000000 -D 0.01 -c black
l -t * -s 4 -d 5 -S UP -r 1000000 -D 0.01 -c black
X -t * -n 6 -r 10Mb -D 10ms -o left
L -t * -s 6 -d 0 -o up
L -t * -s 6 -d 1 -o down
L -t * -s 6 -d 2 -o up
L -t * -s 6 -d 4 -o down
h -t 0.1 -s 0 -d 6 -p tcp -e 40 -c 0 -i 0 -a 0 -x {0.0 5.0 0 ------- null}
+ -t 0.11 -s 0 -d 6 -p tcp -e 40 -c 0 -i 0 -a 0 -x {0.0 5.0 0 ------- null}
- -t 0.11 -s 0 -d 6 -p tcp -e 40 -c 0 -i 0 -a 0 -x {0.0 5.0 0 ------- null}
h -t 0.11 -s 0 -d 6 -p tcp -e 40 -c 0 -i 0 -a 0 -x {0.0 5.0 -1 ------- null}
r -t 0.1200552 -s 6 -d 4 -p tcp -e 40 -c 0 -i 0 -a 0 -x {0.0 5.0 0 ------- null}
+ -t 0.1200552 -s 4 -d 5 -p tcp -e 40 -c 0 -i 0 -a 0 -x {0.0 5.0 0 ------- null}
- -t 0.1200552 -s 4 -d 5 -p tcp -e 40 -c 0 -i 0 -a 0 -x {0.0 5.0 0 ------- null}
h -t 0.1200552 -s 4 -d 5 -p tcp -e 40 -c 0 -i 0 -a 0 -x {0.0 5.0 -1 ------- null}
r -t 0.1303752 -s 4 -d 5 -p tcp -e 40 -c 0 -i 0 -a 0 -x {0.0 5.0 0 ------- null}
+ -t 0.1303752 -s 5 -d 4 -p ack -e 40 -c 0 -i 1 -a 0 -x {5.0 0.0 0 ------- null}
- -t 0.1303752 -s 5 -d 4 -p ack -e 40 -c 0 -i 1 -a 0 -x {5.0 0.0 0 ------- null}
h -t 0.1303752 -s 5 -d 4 -p ack -e 40 -c 0 -i 1 -a 0 -x {5.0 0.0 -1 ------- null}
r -t 0.1406952 -s 5 -d 4 -p ack -e 40 -c 0 -i 1 -a 0 -x {5.0 0.0 0 ------- null}
h -t 0.1406952 -s 4 -d 6 -p ack -e 40 -c 0 -i 1 -a 0 -x {5.0 0.0 0 ------- null}
+ -t 0.1506952 -s 4 -d 6 -p ack -e 40 -c 0 -i 1 -a 0 -x {5.0 0.0 0 ------- null}
- -t 0.1506952 -s 4 -d 6 -p ack -e 40 -c 0 -i 1 -a 0 -x {5.0 0.0 0 ------- null}
h -t 0.1506952 -s 4 -d 6 -p ack -e 40 -c 0 -i 1 -a 0 -x {5.0 0.0 -1 ------- null}
r -t 0.1607504 -s 6 -d 0 -p ack -e 40 -c 0 -i 1 -a 0 -x {5.0 0.0 0 ------- null}
h -t 0.1607504 -s 0 -d 6 -p tcp -e 1040 -c 0 -i 2 -a 0 -x {0.0 5.0 1 ------- null}
h -t 0.1607504 -s 0 -d 6 -p tcp -e 1040 -c 0 -i 3 -a 0 -x {0.0 5.0 2 ------- null}
+ -t 0.1707504 -s 0 -d 6 -p tcp -e 1040 -c 0 -i 2 -a 0 -x {0.0 5.0 1 ------- null}
- -t 0.1707504 -s 0 -d 6 -p tcp -e 1040 -c 0 -i 2 -a 0 -x {0.0 5.0 1 ------- null}
h -t 0.1707504 -s 0 -d 6 -p tcp -e 1040 -c 0 -i 2 -a 0 -x {0.0 5.0 -1 ------- null}
+ -t 0.1707504 -s 0 -d 6 -p tcp -e 1040 -c 0 -i 3 -a 0 -x {0.0 5.0 2 ------- null}
- -t 0.1716032 -s 0 -d 6 -p tcp -e 1040 -c 0 -i 3 -a 0 -x {0.0 5.0 2 ------- null}
h -t 0.1716032 -s 0 -d 6 -p tcp -e 1040 -c 0 -i 3 -a 0 -x {0.0 5.0 -1 ------- null}
r -t 0.1815976 -s 6 -d 4 -p tcp -e 1040 -c 0 -i 2 -a 0 -x {0.0 5.0 1 ------- null}
+ -t 0.1815976 -s 4 -d 5 -p tcp -e 1040 -c 0 -i 2 -a 0 -x {0.0 5.0 1 ------- null}
- -t 0.1815976 -s 4 -d 5 -p tcp -e 1040 -c 0 -i 2 -a 0 -x {0.0 5.0 1 ------- null}
h -t 0.1815976 -s 4 -d 5 -p tcp -e 1040 -c 0 -i 2 -a 0 -x {0.0 5.0 -1 ------- null}
r -t 0.1824504 -s 6 -d 4 -p tcp -e 1040 -c 0 -i 3 -a 0 -x {0.0 5.0 2 ------- null}
+ -t 0.1824504 -s 4 -d 5 -p tcp -e 1040 -c 0 -i 3 -a 0 -x {0.0 5.0 2 ------- null}
- -t 0.1899176 -s 4 -d 5 -p tcp -e 1040 -c 0 -i 3 -a 0 -x {0.0 5.0 2 ------- null}
h -t 0.1899176 -s 4 -d 5 -p tcp -e 1040 -c 0 -i 3 -a 0 -x {0.0 5.0 -1 ------- null}
r -t 0.1999176 -s 4 -d 5 -p tcp -e 1040 -c 0 -i 2 -a 0 -x {0.0 5.0 1 ------- null}
r -t 0.2082376 -s 4 -d 5 -p tcp -e 1040 -c 0 -i 3 -a 0 -x {0.0 5.0 2 ------- null}
+ -t 0.2082376 -s 5 -d 4 -p ack -e 40 -c 0 -i 4 -a 0 -x {5.0 0.0 2 ------- null}
- -t 0.2082376 -s 5 -d 4 -p ack -e 40 -c 0 -i 4 -a 0 -x {5.0 0.0 2 ------- null}
h -t 0.2082376 -s 5 -d 4 -p ack -e 40 -c 0 -i 4 -a 0 -x {5.0 0.0 -1 ------- null}
r -t 0.2185576 -s 5 -d 4 -p ack -e 40 -c 0 -i 4 -a 0 -x {5.0 0.0 2 ------- null}
h -t 0.2185576 -s 4 -d 6 -p ack -e 40 -c 0 -i 4 -a 0 -x {5.0 0.0 2 ------- null}
+ -t 0.2285576 -s 4 -d 6 -p ack -e 40 -c 0 -i 4 -a 0 -x {5.0 0.0 2 ------- null}
- -t 0.2285576 -s 4 -d 6 -p ack -e 40 -c 0 -i 4 -a 0 -x {5.0 0.0 2 ------- null}
h -t 0.2285576 -s 4 -d 6 -p ack -e 40 -c 0 -i 4 -a 0 -x {5.0 0.0 -1 ------- null}
r -t 0.2386128 -s 6 -d 0 -p ack -e 40 -c 0 -i 4 -a 0 -x {5.0 0.0 2 ------- null}
h -t 0.2386128 -s 0 -d 6 -p tcp -e 1040 -c 0 -i 5 -a 0 -x {0.0 5.0 3 ------- null}
h -t 0.2386128 -s 0 -d 6 -p tcp -e 1040 -c 0 -i 6 -a 0 -x {0.0 5.0 4 ------- null}
h -t 0.2386128 -s 0 -d 6 -p tcp -e 1040 -c 0 -i 7 -a 0 -x {0.0 5.0 5 ------- null}
+ -t 0.2486128 -s 0 -d 6 -p tcp -e 1040 -c 0 -i 5 -a 0 -x {0.0 5.0 3 ------- null}
- -t 0.2486128 -s 0 -d 6 -p tcp -e 1040 -c 0 -i 5 -a 0 -x {0.0 5.0 3 ------- null}
h -t 0.2486128 -s 0 -d 6 -p tcp -e 1040 -c 0 -i 5 -a 0 -x {0.0 5.0 -1 ------- null}
+ -t 0.2486128 -s 0 -d 6 -p tcp -e 1040 -c 0 -i 6 -a 0 -x {0.0 5.0 4 ------- null}
+ -t 0.2486128 -s 0 -d 6 -p tcp -e 1040 -c 0 -i 7 -a 0 -x {0.0 5.0 5 ------- null}
- -t 0.2494656 -s 0 -d 6 -p tcp -e 1040 -c 0 -i 6 -a 0 -x {0.0 5.0 4 ------- null}
h -t 0.2494656 -s 0 -d 6 -p tcp -e 1040 -c 0 -i 6 -a 0 -x {0.0 5.0 -1 ------- null}
- -t 0.2503184 -s 0 -d 6 -p tcp -e 1040 -c 0 -i 7 -a 0 -x {0.0 5.0 5 ------- null}
h -t 0.2503184 -s 0 -d 6 -p tcp -e 1040 -c 0 -i 7 -a 0 -x {0.0 5.0 -1 ------- null}
r -t 0.25946 -s 6 -d 4 -p tcp -e 1040 -c 0 -i 5 -a 0 -x {0.0 5.0 3 ------- null}
+ -t 0.25946 -s 4 -d 5 -p tcp -e 1040 -c 0 -i 5 -a 0 -x {0.0 5.0 3 ------- null}
- -t 0.25946 -s 4 -d 5 -p tcp -e 1040 -c 0 -i 5 -a 0 -x {0.0 5.0 3 ------- null}
h -t 0.25946 -s 4 -d 5 -p tcp -e 1040 -c 0 -i 5 -a 0 -x {0.0 5.0 -1 ------- null}
r -t 0.2603128 -s 6 -d 4 -p tcp -e 1040 -c 0 -i 6 -a 0 -x {0.0 5.0 4 ------- null}
+ -t 0.2603128 -s 4 -d 5 -p tcp -e 1040 -c 0 -i 6 -a 0 -x {0.0 5.0 4 ------- null}
r -t 0.2611656 -s 6 -d 4 -p tcp -e 1040 -c 0 -i 7 -a 0 -x {0.0 5.0 5 ------- null}
+ -t 0.2611656 -s 4 -d 5 -p tcp -e 1040 -c 0 -i 7 -a 0 -x {0.0 5.0 5 ------- null}
- -t 0.26778 -s 4 -d 5 -p tcp -e 1040 -c 0 -i 6 -a 0 -x {0.0 5.0 4 ------- null}
h -t 0.26778 -s 4 -d 5 -p tcp -e 1040 -c 0 -i 6 -a 0 -x {0.0 5.0 -1 ------- null}
- -t 0.2761 -s 4 -d 5 -p tcp -e 1040 -c 0 -i 7 -a 0 -x {0.0 5.0 5 ------- null}
h -t 0.2761 -s 4 -d 5 -p tcp -e 1040 -c 0 -i 7 -a 0 -x {0.0 5.0 -1 ------- null}
r -t 0.27778 -s 4 -d 5 -p tcp -e 1040 -c 0 -i 5 -a 0 -x {0.0 5.0 3 ------- null}
r -t 0.2861 -s 4 -d 5 -p tcp -e 1040 -c 0 -i 6 -a 0 -x {0.0 5.0 4 ------- null}
+ -t 0.2861 -s 5 -d 4 -p ack -e 40 -c 0 -i 8 -a 0 -x {5.0 0.0 4 ------- null}
- -t 0.2861 -s 5 -d 4 -p ack -e 40 -c 0 -i 8 -a 0 -x {5.0 0.0 4 ------- null}
h -t 0.2861 -s 5 -d 4 -p ack -e 40 -c 0 -i 8 -a 0 -x {5.0 0.0 -1 ------- null}
r -t 0.29442 -s 4 -d 5 -p tcp -e 1040 -c 0 -i 7 -a 0 -x {0.0 5.0 5 ------- null}
r -t 0.29642 -s 5 -d 4 -p ack -e 40 -c 0 -i 8 -a 0 -x {5.0 0.0 4 ------- null}
h -t 0.29642 -s 4 -d 6 -p ack -e 40 -c 0 -i 8 -a 0 -x {5.0 0.0 4 ------- null}
+ -t 0.30642 -s 4 -d 6 -p ack -e 40 -c 0 -i 8 -a 0 -x {5.0 0.0 4 ------- null}
- -t 0.30642 -s 4 -d 6 -p ack -e 40 -c 0 -i 8 -a 0 -x {5.0 0.0 4 ------- null}
h -t 0.30642 -s 4 -d 6 -p ack -e 40 -c 0 -i 8 -a 0 -x {5.0 0.0 -1 ------- null}
r -t 0.3164752 -s 6 -d 0 -p ack -e 40 -c 0 -i 8 -a 0 -x {5.0 0.0 4 ------- null}
h -t 0.3164752 -s 0 -d 6 -p tcp -e 1040 -c 0 -i 9 -a 0 -x {0.0 5.0 6 ------- null}
h -t 0.3164752 -s 0 -d 6 -p tcp -e 1040 -c 0 -i 10 -a 0 -x {0.0 5.0 7 ------- null}
h -t 0.3164752 -s 0 -d 6 -p tcp -e 1040 -c 0 -i 11 -a 0 -x {0.0 5.0 8 ------- null}
+ -t 0.3264752 -s 0 -d 6 -p tcp -e 1040 -c 0 -i 9 -a 0 -x {0.0 5.0 6 ------- null}
- -t 0.3264752 -s 0 -d 6 -p tcp -e 1040 -c 0 -i 9 -a 0 -x {0.0 5.0 6 ------- null}
h -t 0.3264752 -s 0 -d 6 -p tcp -e 1040 -c 0 -i 9 -a 0 -x {0.0 5.0 -1 ------- null}
+ -t 0.3264752 -s 0 -d 6 -p tcp -e 1040 -c 0 -i 10 -a 0 -x {0.0 5.0 7 ------- null}
+ -t 0.3264752 -s 0 -d 6 -p tcp -e 1040 -c 0 -i 11 -a 0 -x {0.0 5.0 8 ------- null}
- -t 0.327328 -s 0 -d 6 -p tcp -e 1040 -c 0 -i 10 -a 0 -x {0.0 5.0 7 ------- null}
h -t 0.327328 -s 0 -d 6 -p tcp -e 1040 -c 0 -i 10 -a 0 -x {0.0 5.0 -1 ------- null}
- -t 0.3281808 -s 0 -d 6 -p tcp -e 1040 -c 0 -i 11 -a 0 -x {0.0 5.0 8 ------- null}
h -t 0.3281808 -s 0 -d 6 -p tcp -e 1040 -c 0 -i 11 -a 0 -x {0.0 5.0 -1 ------- null}
r -t 0.3373224 -s 6 -d 4 -p tcp -e 1040 -c 0 -i 9 -a 0 -x {0.0 5.0 6 ------- null}
+ -t 0.3373224 -s 4 -d 5 -p tcp -e 1040 -c 0 -i 9 -a 0 -x {0.0 5.0 6 ------- null}
- -t 0.3373224 -s 4 -d 5 -p tcp -e 1040 -c 0 -i 9 -a 0 -x {0.0 5.0 6 ------- null}
h -t 0.3373224 -s 4 -d 5 -p tcp -e 1040 -c 0 -i 9 -a 0 -x {0.0 5.0 -1 ------- null}
r -t 0.3381752 -s 6 -d 4 -p tcp -e 1040 -c 0 -i 10 -a 0 -x {0.0 5.0 7 ------- null}
+ -t 0.3381752 -s 4 -d 5 -p tcp -e 1040 -c 0 -i 10 -a 0 -x {0.0 5.0 7 ------- null}
r -t 0.339028 -s 6 -d 4 -p tcp -e 1040 -c 0 -i 11 -a 0 -x {0.0 5.0 8 ------- null}
+ -t 0.339028 -s 4 -d 5 -p tcp -e 1040 -c 0 -i 11 -a 0 -x {0.0 5.0 8 ------- null}
- -t 0.3456424 -s 4 -d 5 -p tcp -e 1040 -c 0 -i 10 -a 0 -x {0.0 5.0 7 ------- null}
h -t 0.3456424 -s 4 -d 5 -p tcp -e 1040 -c 0 -i 10 -a 0 -x {0.0 5.0 -1 ------- null}
- -t 0.3539624 -s 4 -d 5 -p tcp -e 1040 -c 0 -i 11 -a 0 -x {0.0 5.0 8 ------- null}
h -t 0.3539624 -s 4 -d 5 -p tcp -e 1040 -c 0 -i 11 -a 0 -x {0.0 5.0 -1 ------- null}
r -t 0.3556424 -s 4 -d 5 -p tcp -e 1040 -c 0 -i 9 -a 0 -x {0.0 5.0 6 ------- null}
+ -t 0.3556424 -s 5 -d 4 -p ack -e 40 -c 0 -i 12 -a 0 -x {5.0 0.0 6 ------- null}
- -t 0.3556424 -s 5 -d 4 -p ack -e 40 -c 0 -i 12 -a 0 -x {5.0 0.0 6 ------- null}
h -t 0.3556424 -s 5 -d 4 -p ack -e 40 -c 0 -i 12 -a 0 -x {5.0 0.0 -1 ------- null}
r -t 0.3639624 -s 4 -d 5 -p tcp -e 1040 -c 0 -i 10 -a 0 -x {0.0 5.0 7 ------- null}
r -t 0.3659624 -s 5 -d 4 -p ack -e 40 -c 0 -i 12 -a 0 -x {5.0 0.0 6 ------- null}
h -t 0.3659624 -s 4 -d 6 -p ack -e 40 -c 0 -i 12 -a 0 -x {5.0 0.0 6 ------- null}
r -t 0.3722824 -s 4 -d 5 -p tcp -e 1040 -c 0 -i 11 -a 0 -x {0.0 5.0 8 ------- null}
+ -t 0.3722824 -s 5 -d 4 -p ack -e 40 -c 0 -i 13 -a 0 -x {5.0 0.0 8 ------- null}
- -t 0.3722824 -s 5 -d 4 -p ack -e 40 -c 0 -i 13 -a 0 -x {5.0 0.0 8 ------- null}
h -t 0.3722824 -s 5 -d 4 -p ack -e 40 -c 0 -i 13 -a 0 -x {5.0 0.0 -1 ------- null}
+ -t 0.3759624 -s 4 -d 6 -p ack -e 40 -c 0 -i 12 -a 0 -x {5.0 0.0 6 ------- null}
- -t 0.3759624 -s 4 -d 6 -p ack -e 40 -c 0 -i 12 -a 0 -x {5.0 0.0 6 ------- null}
h -t 0.3759624 -s 4 -d 6 -p ack -e 40 -c 0 -i 12 -a 0 -x {5.0 0.0 -1 ------- null}
r -t 0.3826024 -s 5 -d 4 -p ack -e 40 -c 0 -i 13 -a 0 -x {5.0 0.0 8 ------- null}
h -t 0.3826024 -s 4 -d 6 -p ack -e 40 -c 0 -i 13 -a 0 -x {5.0 0.0 8 ------- null}
r -t 0.3860176 -s 6 -d 0 -p ack -e 40 -c 0 -i 12 -a 0 -x {5.0 0.0 6 ------- null}
h -t 0.3860176 -s 0 -d 6 -p tcp -e 1040 -c 0 -i 14 -a 0 -x {0.0 5.0 9 ------- null}
h -t 0.3860176 -s 0 -d 6 -p tcp -e 1040 -c 0 -i 15 -a 0 -x {0.0 5.0 10 ------- null}
h -t 0.3860176 -s 0 -d 6 -p tcp -e 1040 -c 0 -i 16 -a 0 -x {0.0 5.0 11 ------- null}
+ -t 0.3926024 -s 4 -d 6 -p ack -e 40 -c 0 -i 13 -a 0 -x {5.0 0.0 8 ------- null}
- -t 0.3926024 -s 4 -d 6 -p ack -e 40 -c 0 -i 13 -a 0 -x {5.0 0.0 8 ------- null}
h -t 0.3926024 -s 4 -d 6 -p ack -e 40 -c 0 -i 13 -a 0 -x {5.0 0.0 -1 ------- null}
+ -t 0.3960176 -s 0 -d 6 -p tcp -e 1040 -c 0 -i 14 -a 0 -x {0.0 5.0 9 ------- null}
- -t 0.3960176 -s 0 -d 6 -p tcp -e 1040 -c 0 -i 14 -a 0 -x {0.0 5.0 9 ------- null}
h -t 0.3960176 -s 0 -d 6 -p tcp -e 1040 -c 0 -i 14 -a 0 -x {0.0 5.0 -1 ------- null}
+ -t 0.3960176 -s 0 -d 6 -p tcp -e 1040 -c 0 -i 15 -a 0 -x {0.0 5.0 10 ------- null}
+ -t 0.3960176 -s 0 -d 6 -p tcp -e 1040 -c 0 -i 16 -a 0 -x {0.0 5.0 11 ------- null}
- -t 0.3968704 -s 0 -d 6 -p tcp -e 1040 -c 0 -i 15 -a 0 -x {0.0 5.0 10 ------- null}
h -t 0.3968704 -s 0 -d 6 -p tcp -e 1040 -c 0 -i 15 -a 0 -x {0.0 5.0 -1 ------- null}
- -t 0.3977232 -s 0 -d 6 -p tcp -e 1040 -c 0 -i 16 -a 0 -x {0.0 5.0 11 ------- null}
h -t 0.3977232 -s 0 -d 6 -p tcp -e 1040 -c 0 -i 16 -a 0 -x {0.0 5.0 -1 ------- null}
r -t 0.4026576 -s 6 -d 0 -p ack -e 40 -c 0 -i 13 -a 0 -x {5.0 0.0 8 ------- null}
h -t 0.4026576 -s 0 -d 6 -p tcp -e 1040 -c 0 -i 17 -a 0 -x {0.0 5.0 12 ------- null}
h -t 0.4026576 -s 0 -d 6 -p tcp -e 1040 -c 0 -i 18 -a 0 -x {0.0 5.0 13 ------- null}
h -t 0.4026576 -s 0 -d 6 -p tcp -e 1040 -c 0 -i 19 -a 0 -x {0.0 5.0 14 ------- null}
r -t 0.4068648 -s 6 -d 4 -p tcp -e 1040 -c 0 -i 14 -a 0 -x {0.0 5.0 9 ------- null}
+ -t 0.4068648 -s 4 -d 5 -p tcp -e 1040 -c 0 -i 14 -a 0 -x {0.0 5.0 9 ------- null}
- -t 0.4068648 -s 4 -d 5 -p tcp -e 1040 -c 0 -i 14 -a 0 -x {0.0 5.0 9 ------- null}
h -t 0.4068648 -s 4 -d 5 -p tcp -e 1040 -c 0 -i 14 -a 0 -x {0.0 5.0 -1 ------- null}
r -t 0.4077176 -s 6 -d 4 -p tcp -e 1040 -c 0 -i 15 -a 0 -x {0.0 5.0 10 ------- null}
+ -t 0.4077176 -s 4 -d 5 -p tcp -e 1040 -c 0 -i 15 -a 0 -x {0.0 5.0 10 ------- null}
r -t 0.4085704 -s 6 -d 4 -p tcp -e 1040 -c 0 -i 16 -a 0 -x {0.0 5.0 11 ------- null}
+ -t 0.4085704 -s 4 -d 5 -p tcp -e 1040 -c 0 -i 16 -a 0 -x {0.0 5.0 11 ------- null}
+ -t 0.4126576 -s 0 -d 6 -p tcp -e 1040 -c 0 -i 17 -a 0 -x {0.0 5.0 12 ------- null}
- -t 0.4126576 -s 0 -d 6 -p tcp -e 1040 -c 0 -i 17 -a 0 -x {0.0 5.0 12 ------- null}
h -t 0.4126576 -s 0 -d 6 -p tcp -e 1040 -c 0 -i 17 -a 0 -x {0.0 5.0 -1 ------- null}
+ -t 0.4126576 -s 0 -d 6 -p tcp -e 1040 -c 0 -i 18 -a 0 -x {0.0 5.0 13 ------- null}
+ -t 0.4126576 -s 0 -d 6 -p tcp -e 1040 -c 0 -i 19 -a 0 -x {0.0 5.0 14 ------- null}
- -t 0.4135104 -s 0 -d 6 -p tcp -e 1040 -c 0 -i 18 -a 0 -x {0.0 5.0 13 ------- null}
h -t 0.4135104 -s 0 -d 6 -p tcp -e 1040 -c 0 -i 18 -a 0 -x {0.0 5.0 -1 ------- null}
- -t 0.4143632 -s 0 -d 6 -p tcp -e 1040 -c 0 -i 19 -a 0 -x {0.0 5.0 14 ------- null}
h -t 0.4143632 -s 0 -d 6 -p tcp -e 1040 -c 0 -i 19 -a 0 -x {0.0 5.0 -1 ------- null}
- -t 0.4151848 -s 4 -d 5 -p tcp -e 1040 -c 0 -i 15 -a 0 -x {0.0 5.0 10 ------- null}
h -t 0.4151848 -s 4 -d 5 -p tcp -e 1040 -c 0 -i 15 -a 0 -x {0.0 5.0 -1 ------- null}
r -t 0.4235048 -s 6 -d 4 -p tcp -e 1040 -c 0 -i 17 -a 0 -x {0.0 5.0 12 ------- null}
+ -t 0.4235048 -s 4 -d 5 -p tcp -e 1040 -c 0 -i 17 -a 0 -x {0.0 5.0 12 ------- null}
- -t 0.4235048 -s 4 -d 5 -p tcp -e 1040 -c 0 -i 16 -a 0 -x {0.0 5.0 11 ------- null}
h -t 0.4235048 -s 4 -d 5 -p tcp -e 1040 -c 0 -i 16 -a 0 -x {0.0 5.0 -1 ------- null}
r -t 0.4243576 -s 6 -d 4 -p tcp -e 1040 -c 0 -i 18 -a 0 -x {0.0 5.0 13 ------- null}
+ -t 0.4243576 -s 4 -d 5 -p tcp -e 1040 -c 0 -i 18 -a 0 -x {0.0 5.0 13 ------- null}
r -t 0.4251848 -s 4 -d 5 -p tcp -e 1040 -c 0 -i 14 -a 0 -x {0.0 5.0 9 ------- null}
r -t 0.4252104 -s 6 -d 4 -p tcp -e 1040 -c 0 -i 19 -a 0 -x {0.0 5.0 14 ------- null}
+ -t 0.4252104 -s 4 -d 5 -p tcp -e 1040 -c 0 -i 19 -a 0 -x {0.0 5.0 14 ------- null}
- -t 0.4318248 -s 4 -d 5 -p tcp -e 1040 -c 0 -i 17 -a 0 -x {0.0 5.0 12 ------- null}
h -t 0.4318248 -s 4 -d 5 -p tcp -e 1040 -c 0 -i 17 -a 0 -x {0.0 5.0 -1 ------- null}
r -t 0.4335048 -s 4 -d 5 -p tcp -e 1040 -c 0 -i 15 -a 0 -x {0.0 5.0 10 ------- null}
+ -t 0.4335048 -s 5 -d 4 -p ack -e 40 -c 0 -i 20 -a 0 -x {5.0 0.0 10 ------- null}
- -t 0.4335048 -s 5 -d 4 -p ack -e 40 -c 0 -i 20 -a 0 -x {5.0 0.0 10 ------- null}
h -t 0.4335048 -s 5 -d 4 -p ack -e 40 -c 0 -i 20 -a 0 -x {5.0 0.0 -1 ------- null}
- -t 0.4401448 -s 4 -d 5 -p tcp -e 1040 -c 0 -i 18 -a 0 -x {0.0 5.0 13 ------- null}
h -t 0.4401448 -s 4 -d 5 -p tcp -e 1040 -c 0 -i 18 -a 0 -x {0.0 5.0 -1 ------- null}
r -t 0.4418248 -s 4 -d 5 -p tcp -e 1040 -c 0 -i 16 -a 0 -x {0.0 5.0 11 ------- null}
r -t 0.4438248 -s 5 -d 4 -p ack -e 40 -c 0 -i 20 -a 0 -x {5.0 0.0 10 ------- null}
h -t 0.4438248 -s 4 -d 6 -p ack -e 40 -c 0 -i 20 -a 0 -x {5.0 0.0 10 ------- null}
- -t 0.4484648 -s 4 -d 5 -p tcp -e 1040 -c 0 -i 19 -a 0 -x {0.0 5.0 14 ------- null}
h -t 0.4484648 -s 4 -d 5 -p tcp -e 1040 -c 0 -i 19 -a 0 -x {0.0 5.0 -1 ------- null}
r -t 0.4501448 -s 4 -d 5 -p tcp -e 1040 -c 0 -i 17 -a 0 -x {0.0 5.0 12 ------- null}
+ -t 0.4501448 -s 5 -d 4 -p ack -e 40 -c 0 -i 21 -a 0 -x {5.0 0.0 12 ------- null}
- -t 0.4501448 -s 5 -d 4 -p ack -e 40 -c 0 -i 21 -a 0 -x {5.0 0.0 12 ------- null}
h -t 0.4501448 -s 5 -d 4 -p ack -e 40 -c 0 -i 21 -a 0 -x {5.0 0.0 -1 ------- null}
+ -t 0.4538248 -s 4 -d 6 -p ack -e 40 -c 0 -i 20 -a 0 -x {5.0 0.0 10 ------- null}
- -t 0.4538248 -s 4 -d 6 -p ack -e 40 -c 0 -i 20 -a 0 -x {5.0 0.0 10 ------- null}
h -t 0.4538248 -s 4 -d 6 -p ack -e 40 -c 0 -i 20 -a 0 -x {5.0 0.0 -1 ------- null}
r -t 0.4584648 -s 4 -d 5 -p tcp -e 1040 -c 0 -i 18 -a 0 -x {0.0 5.0 13 ------- null}
r -t 0.4604648 -s 5 -d 4 -p ack -e 40 -c 0 -i 21 -a 0 -x {5.0 0.0 12 ------- null}
h -t 0.4604648 -s 4 -d 6 -p ack -e 40 -c 0 -i 21 -a 0 -x {5.0 0.0 12 ------- null}
r -t 0.46388 -s 6 -d 0 -p ack -e 40 -c 0 -i 20 -a 0 -x {5.0 0.0 10 ------- null}
h -t 0.46388 -s 0 -d 6 -p tcp -e 1040 -c 0 -i 22 -a 0 -x {0.0 5.0 15 ------- null}
h -t 0.46388 -s 0 -d 6 -p tcp -e 1040 -c 0 -i 23 -a 0 -x {0.0 5.0 16 ------- null}
h -t 0.46388 -s 0 -d 6 -p tcp -e 1040 -c 0 -i 24 -a 0 -x {0.0 5.0 17 ------- null}
r -t 0.4667848 -s 4 -d 5 -p tcp -e 1040 -c 0 -i 19 -a 0 -x {0.0 5.0 14 ------- null}
+ -t 0.4667848 -s 5 -d 4 -p ack -e 40 -c 0 -i 25 -a 0 -x {5.0 0.0 14 ------- null}
- -t 0.4667848 -s 5 -d 4 -p ack -e 40 -c 0 -i 25 -a 0 -x {5.0 0.0 14 ------- null}
h -t 0.4667848 -s 5 -d 4 -p ack -e 40 -c 0 -i 25 -a 0 -x {5.0 0.0 -1 ------- null}
+ -t 0.4704648 -s 4 -d 6 -p ack -e 40 -c 0 -i 21 -a 0 -x {5.0 0.0 12 ------- null}
- -t 0.4704648 -s 4 -d 6 -p ack -e 40 -c 0 -i 21 -a 0 -x {5.0 0.0 12 ------- null}
h -t 0.4704648 -s 4 -d 6 -p ack -e 40 -c 0 -i 21 -a 0 -x {5.0 0.0 -1 ------- null}
+ -t 0.47388 -s 0 -d 6 -p tcp -e 1040 -c 0 -i 22 -a 0 -x {0.0 5.0 15 ------- null}
- -t 0.47388 -s 0 -d 6 -p tcp -e 1040 -c 0 -i 22 -a 0 -x {0.0 5.0 15 ------- null}
h -t 0.47388 -s 0 -d 6 -p tcp -e 1040 -c 0 -i 22 -a 0 -x {0.0 5.0 -1 ------- null}
+ -t 0.47388 -s 0 -d 6 -p tcp -e 1040 -c 0 -i 23 -a 0 -x {0.0 5.0 16 ------- null}
+ -t 0.47388 -s 0 -d 6 -p tcp -e 1040 -c 0 -i 24 -a 0 -x {0.0 5.0 17 ------- null}
- -t 0.4747328 -s 0 -d 6 -p tcp -e 1040 -c 0 -i 23 -a 0 -x {0.0 5.0 16 ------- null}
h -t 0.4747328 -s 0 -d 6 -p tcp -e 1040 -c 0 -i 23 -a 0 -x {0.0 5.0 -1 ------- null}
- -t 0.4755856 -s 0 -d 6 -p tcp -e 1040 -c 0 -i 24 -a 0 -x {0.0 5.0 17 ------- null}
h -t 0.4755856 -s 0 -d 6 -p tcp -e 1040 -c 0 -i 24 -a 0 -x {0.0 5.0 -1 ------- null}
r -t 0.4771048 -s 5 -d 4 -p ack -e 40 -c 0 -i 25 -a 0 -x {5.0 0.0 14 ------- null}
h -t 0.4771048 -s 4 -d 6 -p ack -e 40 -c 0 -i 25 -a 0 -x {5.0 0.0 14 ------- null}
r -t 0.48052 -s 6 -d 0 -p ack -e 40 -c 0 -i 21 -a 0 -x {5.0 0.0 12 ------- null}
h -t 0.48052 -s 0 -d 6 -p tcp -e 1040 -c 0 -i 26 -a 0 -x {0.0 5.0 18 ------- null}
h -t 0.48052 -s 0 -d 6 -p tcp -e 1040 -c 0 -i 27 -a 0 -x {0.0 5.0 19 ------- null}
h -t 0.48052 -s 0 -d 6 -p tcp -e 1040 -c 0 -i 28 -a 0 -x {0.0 5.0 20 ------- null}
r -t 0.4847272 -s 6 -d 4 -p tcp -e 1040 -c 0 -i 22 -a 0 -x {0.0 5.0 15 ------- null}
+ -t 0.4847272 -s 4 -d 5 -p tcp -e 1040 -c 0 -i 22 -a 0 -x {0.0 5.0 15 ------- null}
- -t 0.4847272 -s 4 -d 5 -p tcp -e 1040 -c 0 -i 22 -a 0 -x {0.0 5.0 15 ------- null}
h -t 0.4847272 -s 4 -d 5 -p tcp -e 1040 -c 0 -i 22 -a 0 -x {0.0 5.0 -1 ------- null}
r -t 0.48558 -s 6 -d 4 -p tcp -e 1040 -c 0 -i 23 -a 0 -x {0.0 5.0 16 ------- null}
+ -t 0.48558 -s 4 -d 5 -p tcp -e 1040 -c 0 -i 23 -a 0 -x {0.0 5.0 16 ------- null}
r -t 0.4864328 -s 6 -d 4 -p tcp -e 1040 -c 0 -i 24 -a 0 -x {0.0 5.0 17 ------- null}
+ -t 0.4864328 -s 4 -d 5 -p tcp -e 1040 -c 0 -i 24 -a 0 -x {0.0 5.0 17 ------- null}
+ -t 0.4871048 -s 4 -d 6 -p ack -e 40 -c 0 -i 25 -a 0 -x {5.0 0.0 14 ------- null}
- -t 0.4871048 -s 4 -d 6 -p ack -e 40 -c 0 -i 25 -a 0 -x {5.0 0.0 14 ------- null}
h -t 0.4871048 -s 4 -d 6 -p ack -e 40 -c 0 -i 25 -a 0 -x {5.0 0.0 -1 ------- null}
+ -t 0.49052 -s 0 -d 6 -p tcp -e 1040 -c 0 -i 26 -a 0 -x {0.0 5.0 18 ------- null}
- -t 0.49052 -s 0 -d 6 -p tcp -e 1040 -c 0 -i 26 -a 0 -x {0.0 5.0 18 ------- null}
h -t 0.49052 -s 0 -d 6 -p tcp -e 1040 -c 0 -i 26 -a 0 -x {0.0 5.0 -1 ------- null}
+ -t 0.49052 -s 0 -d 6 -p tcp -e 1040 -c 0 -i 27 -a 0 -x {0.0 5.0 19 ------- null}
+ -t 0.49052 -s 0 -d 6 -p tcp -e 1040 -c 0 -i 28 -a 0 -x {0.0 5.0 20 ------- null}
- -t 0.4913728 -s 0 -d 6 -p tcp -e 1040 -c 0 -i 27 -a 0 -x {0.0 5.0 19 ------- null}
h -t 0.4913728 -s 0 -d 6 -p tcp -e 1040 -c 0 -i 27 -a 0 -x {0.0 5.0 -1 ------- null}
- -t 0.4922256 -s 0 -d 6 -p tcp -e 1040 -c 0 -i 28 -a 0 -x {0.0 5.0 20 ------- null}
h -t 0.4922256 -s 0 -d 6 -p tcp -e 1040 -c 0 -i 28 -a 0 -x {0.0 5.0 -1 ------- null}
- -t 0.4930472 -s 4 -d 5 -p tcp -e 1040 -c 0 -i 23 -a 0 -x {0.0 5.0 16 ------- null}
h -t 0.4930472 -s 4 -d 5 -p tcp -e 1040 -c 0 -i 23 -a 0 -x {0.0 5.0 -1 ------- null}
r -t 0.49716 -s 6 -d 0 -p ack -e 40 -c 0 -i 25 -a 0 -x {5.0 0.0 14 ------- null}
h -t 0.49716 -s 0 -d 6 -p tcp -e 1040 -c 0 -i 29 -a 0 -x {0.0 5.0 21 ------- null}
h -t 0.49716 -s 0 -d 6 -p tcp -e 1040 -c 0 -i 30 -a 0 -x {0.0 5.0 22 ------- null}
h -t 0.49716 -s 0 -d 6 -p tcp -e 1040 -c 0 -i 31 -a 0 -x {0.0 5.0 23 ------- null}
r -t 0.5013672 -s 6 -d 4 -p tcp -e 1040 -c 0 -i 26 -a 0 -x {0.0 5.0 18 ------- null}
+ -t 0.5013672 -s 4 -d 5 -p tcp -e 1040 -c 0 -i 26 -a 0 -x {0.0 5.0 18 ------- null}
- -t 0.5013672 -s 4 -d 5 -p tcp -e 1040 -c 0 -i 24 -a 0 -x {0.0 5.0 17 ------- null}
h -t 0.5013672 -s 4 -d 5 -p tcp -e 1040 -c 0 -i 24 -a 0 -x {0.0 5.0 -1 ------- null}
r -t 0.50222 -s 6 -d 4 -p tcp -e 1040 -c 0 -i 27 -a 0 -x {0.0 5.0 19 ------- null}
+ -t 0.50222 -s 4 -d 5 -p tcp -e 1040 -c 0 -i 27 -a 0 -x {0.0 5.0 19 ------- null}
r -t 0.5030472 -s 4 -d 5 -p tcp -e 1040 -c 0 -i 22 -a 0 -x {0.0 5.0 15 ------- null}
r -t 0.5030728 -s 6 -d 4 -p tcp -e 1040 -c 0 -i 28 -a 0 -x {0.0 5.0 20 ------- null}
+ -t 0.5030728 -s 4 -d 5 -p tcp -e 1040 -c 0 -i 28 -a 0 -x {0.0 5.0 20 ------- null}
+ -t 0.50716 -s 0 -d 6 -p tcp -e 1040 -c 0 -i 29 -a 0 -x {0.0 5.0 21 ------- null}
- -t 0.50716 -s 0 -d 6 -p tcp -e 1040 -c 0 -i 29 -a 0 -x {0.0 5.0 21 ------- null}
h -t 0.50716 -s 0 -d 6 -p tcp -e 1040 -c 0 -i 29 -a 0 -x {0.0 5.0 -1 ------- null}
+ -t 0.50716 -s 0 -d 6 -p tcp -e 1040 -c 0 -i 30 -a 0 -x {0.0 5.0 22 ------- null}
+ -t 0.50716 -s 0 -d 6 -p tcp -e 1040 -c 0 -i 31 -a 0 -x {0.0 5.0 23 ------- null}
- -t 0.5080128 -s 0 -d 6 -p tcp -e 1040 -c 0 -i 30 -a 0 -x {0.0 5.0 22 ------- null}
h -t 0.5080128 -s 0 -d 6 -p tcp -e 1040 -c 0 -i 30 -a 0 -x {0.0 5.0 -1 ------- null}
- -t 0.5088656 -s 0 -d 6 -p tcp -e 1040 -c 0 -i 31 -a 0 -x {0.0 5.0 23 ------- null}
h -t 0.5088656 -s 0 -d 6 -p tcp -e 1040 -c 0 -i 31 -a 0 -x {0.0 5.0 -1 ------- null}
- -t 0.5096872 -s 4 -d 5 -p tcp -e 1040 -c 0 -i 26 -a 0 -x {0.0 5.0 18 ------- null}
h -t 0.5096872 -s 4 -d 5 -p tcp -e 1040 -c 0 -i 26 -a 0 -x {0.0 5.0 -1 ------- null}
r -t 0.5113672 -s 4 -d 5 -p tcp -e 1040 -c 0 -i 23 -a 0 -x {0.0 5.0 16 ------- null}
+ -t 0.5113672 -s 5 -d 4 -p ack -e 40 -c 0 -i 32 -a 0 -x {5.0 0.0 16 ------- null}
- -t 0.5113672 -s 5 -d 4 -p ack -e 40 -c 0 -i 32 -a 0 -x {5.0 0.0 16 ------- null}
h -t 0.5113672 -s 5 -d 4 -p ack -e 40 -c 0 -i 32 -a 0 -x {5.0 0.0 -1 ------- null}
r -t 0.5180072 -s 6 -d 4 -p tcp -e 1040 -c 0 -i 29 -a 0 -x {0.0 5.0 21 ------- null}
+ -t 0.5180072 -s 4 -d 5 -p tcp -e 1040 -c 0 -i 29 -a 0 -x {0.0 5.0 21 ------- null}
- -t 0.5180072 -s 4 -d 5 -p tcp -e 1040 -c 0 -i 27 -a 0 -x {0.0 5.0 19 ------- null}
h -t 0.5180072 -s 4 -d 5 -p tcp -e 1040 -c 0 -i 27 -a 0 -x {0.0 5.0 -1 ------- null}
r -t 0.51886 -s 6 -d 4 -p tcp -e 1040 -c 0 -i 30 -a 0 -x {0.0 5.0 22 ------- null}
+ -t 0.51886 -s 4 -d 5 -p tcp -e 1040 -c 0 -i 30 -a 0 -x {0.0 5.0 22 ------- null}
r -t 0.5196872 -s 4 -d 5 -p tcp -e 1040 -c 0 -i 24 -a 0 -x {0.0 5.0 17 ------- null}
r -t 0.5197128 -s 6 -d 4 -p tcp -e 1040 -c 0 -i 31 -a 0 -x {0.0 5.0 23 ------- null}
+ -t 0.5197128 -s 4 -d 5 -p tcp -e 1040 -c 0 -i 31 -a 0 -x {0.0 5.0 23 ------- null}
r -t 0.5216872 -s 5 -d 4 -p ack -e 40 -c 0 -i 32 -a 0 -x {5.0 0.0 16 ------- null}
h -t 0.5216872 -s 4 -d 6 -p ack -e 40 -c 0 -i 32 -a 0 -x {5.0 0.0 16 ------- null}
- -t 0.5263272 -s 4 -d 5 -p tcp -e 1040 -c 0 -i 28 -a 0 -x {0.0 5.0 20 ------- null}
h -t 0.5263272 -s 4 -d 5 -p tcp -e 1040 -c 0 -i 28 -a 0 -x {0.0 5.0 -1 ------- null}
r -t 0.5280072 -s 4 -d 5 -p tcp -e 1040 -c 0 -i 26 -a 0 -x {0.0 5.0 18 ------- null}
+ -t 0.5280072 -s 5 -d 4 -p ack -e 40 -c 0 -i 33 -a 0 -x {5.0 0.0 18 ------- null}
- -t 0.5280072 -s 5 -d 4 -p ack -e 40 -c 0 -i 33 -a 0 -x {5.0 0.0 18 ------- null}
h -t 0.5280072 -s 5 -d 4 -p ack -e 40 -c 0 -i 33 -a 0 -x {5.0 0.0 -1 ------- null}
+ -t 0.5316872 -s 4 -d 6 -p ack -e 40 -c 0 -i 32 -a 0 -x {5.0 0.0 16 ------- null}
- -t 0.5316872 -s 4 -d 6 -p ack -e 40 -c 0 -i 32 -a 0 -x {5.0 0.0 16 ------- null}
h -t 0.5316872 -s 4 -d 6 -p ack -e 40 -c 0 -i 32 -a 0 -x {5.0 0.0 -1 ------- null}
- -t 0.5346472 -s 4 -d 5 -p tcp -e 1040 -c 0 -i 29 -a 0 -x {0.0 5.0 21 ------- null}
h -t 0.5346472 -s 4 -d 5 -p tcp -e 1040 -c 0 -i 29 -a 0 -x {0.0 5.0 -1 ------- null}
r -t 0.5363272 -s 4 -d 5 -p tcp -e 1040 -c 0 -i 27 -a 0 -x {0.0 5.0 19 ------- null}
r -t 0.5383272 -s 5 -d 4 -p ack -e 40 -c 0 -i 33 -a 0 -x {5.0 0.0 18 ------- null}
h -t 0.5383272 -s 4 -d 6 -p ack -e 40 -c 0 -i 33 -a 0 -x {5.0 0.0 18 ------- null}
r -t 0.5417424 -s 6 -d 0 -p ack -e 40 -c 0 -i 32 -a 0 -x {5.0 0.0 16 ------- null}
h -t 0.5417424 -s 0 -d 6 -p tcp -e 1040 -c 0 -i 34 -a 0 -x {0.0 5.0 24 ------- null}
h -t 0.5417424 -s 0 -d 6 -p tcp -e 1040 -c 0 -i 35 -a 0 -x {0.0 5.0 25 ------- null}
h -t 0.5417424 -s 0 -d 6 -p tcp -e 1040 -c 0 -i 36 -a 0 -x {0.0 5.0 26 ------- null}
- -t 0.5429672 -s 4 -d 5 -p tcp -e 1040 -c 0 -i 30 -a 0 -x {0.0 5.0 22 ------- null}
h -t 0.5429672 -s 4 -d 5 -p tcp -e 1040 -c 0 -i 30 -a 0 -x {0.0 5.0 -1 ------- null}
r -t 0.5446472 -s 4 -d 5 -p tcp -e 1040 -c 0 -i 28 -a 0 -x {0.0 5.0 20 ------- null}
+ -t 0.5446472 -s 5 -d 4 -p ack -e 40 -c 0 -i 37 -a 0 -x {5.0 0.0 20 ------- null}
- -t 0.5446472 -s 5 -d 4 -p ack -e 40 -c 0 -i 37 -a 0 -x {5.0 0.0 20 ------- null}
h -t 0.5446472 -s 5 -d 4 -p ack -e 40 -c 0 -i 37 -a 0 -x {5.0 0.0 -1 ------- null}
+ -t 0.5483272 -s 4 -d 6 -p ack -e 40 -c 0 -i 33 -a 0 -x {5.0 0.0 18 ------- null}
- -t 0.5483272 -s 4 -d 6 -p ack -e 40 -c 0 -i 33 -a 0 -x {5.0 0.0 18 ------- null}
h -t 0.5483272 -s 4 -d 6 -p ack -e 40 -c 0 -i 33 -a 0 -x {5.0 0.0 -1 ------- null}
- -t 0.5512872 -s 4 -d 5 -p tcp -e 1040 -c 0 -i 31 -a 0 -x {0.0 5.0 23 ------- null}
h -t 0.5512872 -s 4 -d 5 -p tcp -e 1040 -c 0 -i 31 -a 0 -x {0.0 5.0 -1 ------- null}
+ -t 0.5517424 -s 0 -d 6 -p tcp -e 1040 -c 0 -i 34 -a 0 -x {0.0 5.0 24 ------- null}
- -t 0.5517424 -s 0 -d 6 -p tcp -e 1040 -c 0 -i 34 -a 0 -x {0.0 5.0 24 ------- null}
h -t 0.5517424 -s 0 -d 6 -p tcp -e 1040 -c 0 -i 34 -a 0 -x {0.0 5.0 -1 ------- null}
+ -t 0.5517424 -s 0 -d 6 -p tcp -e 1040 -c 0 -i 35 -a 0 -x {0.0 5.0 25 ------- null}
+ -t 0.5517424 -s 0 -d 6 -p tcp -e 1040 -c 0 -i 36 -a 0 -x {0.0 5.0 26 ------- null}
- -t 0.5525952 -s 0 -d 6 -p tcp -e 1040 -c 0 -i 35 -a 0 -x {0.0 5.0 25 ------- null}
h -t 0.5525952 -s 0 -d 6 -p tcp -e 1040 -c 0 -i 35 -a 0 -x {0.0 5.0 -1 ------- null}
r -t 0.5529672 -s 4 -d 5 -p tcp -e 1040 -c 0 -i 29 -a 0 -x {0.0 5.0 21 ------- null}
- -t 0.553448 -s 0 -d 6 -p tcp -e 1040 -c 0 -i 36 -a 0 -x {0.0 5.0 26 ------- null}
h -t 0.553448 -s 0 -d 6 -p tcp -e 1040 -c 0 -i 36 -a 0 -x {0.0 5.0 -1 ------- null}
r -t 0.5549672 -s 5 -d 4 -p ack -e 40 -c 0 -i 37 -a 0 -x {5.0 0.0 20 ------- null}
h -t 0.5549672 -s 4 -d 6 -p ack -e 40 -c 0 -i 37 -a 0 -x {5.0 0.0 20 ------- null}
r -t 0.5583824 -s 6 -d 0 -p ack -e 40 -c 0 -i 33 -a 0 -x {5.0 0.0 18 ------- null}
h -t 0.5583824 -s 0 -d 6 -p tcp -e 1040 -c 0 -i 38 -a 0 -x {0.0 5.0 27 ------- null}
h -t 0.5583824 -s 0 -d 6 -p tcp -e 1040 -c 0 -i 39 -a 0 -x {0.0 5.0 28 ------- null}
h -t 0.5583824 -s 0 -d 6 -p tcp -e 1040 -c 0 -i 40 -a 0 -x {0.0 5.0 29 ------- null}
r -t 0.5612872 -s 4 -d 5 -p tcp -e 1040 -c 0 -i 30 -a 0 -x {0.0 5.0 22 ------- null}
+ -t 0.5612872 -s 5 -d 4 -p ack -e 40 -c 0 -i 41 -a 0 -x {5.0 0.0 22 ------- null}
- -t 0.5612872 -s 5 -d 4 -p ack -e 40 -c 0 -i 41 -a 0 -x {5.0 0.0 22 ------- null}
h -t 0.5612872 -s 5 -d 4 -p ack -e 40 -c 0 -i 41 -a 0 -x {5.0 0.0 -1 ------- null}
r -t 0.5625896 -s 6 -d 4 -p tcp -e 1040 -c 0 -i 34 -a 0 -x {0.0 5.0 24 ------- null}
+ -t 0.5625896 -s 4 -d 5 -p tcp -e 1040 -c 0 -i 34 -a 0 -x {0.0 5.0 24 ------- null}
- -t 0.5625896 -s 4 -d 5 -p tcp -e 1040 -c 0 -i 34 -a 0 -x {0.0 5.0 24 ------- null}
h -t 0.5625896 -s 4 -d 5 -p tcp -e 1040 -c 0 -i 34 -a 0 -x {0.0 5.0 -1 ------- null}
r -t 0.5634424 -s 6 -d 4 -p tcp -e 1040 -c 0 -i 35 -a 0 -x {0.0 5.0 25 ------- null}
+ -t 0.5634424 -s 4 -d 5 -p tcp -e 1040 -c 0 -i 35 -a 0 -x {0.0 5.0 25 ------- null}
r -t 0.5642952 -s 6 -d 4 -p tcp -e 1040 -c 0 -i 36 -a 0 -x {0.0 5.0 26 ------- null}
+ -t 0.5642952 -s 4 -d 5 -p tcp -e 1040 -c 0 -i 36 -a 0 -x {0.0 5.0 26 ------- null}
+ -t 0.5649672 -s 4 -d 6 -p ack -e 40 -c 0 -i 37 -a 0 -x {5.0 0.0 20 ------- null}
- -t 0.5649672 -s 4 -d 6 -p ack -e 40 -c 0 -i 37 -a 0 -x {5.0 0.0 20 ------- null}
h -t 0.5649672 -s 4 -d 6 -p ack -e 40 -c 0 -i 37 -a 0 -x {5.0 0.0 -1 ------- null}
+ -t 0.5683824 -s 0 -d 6 -p tcp -e 1040 -c 0 -i 38 -a 0 -x {0.0 5.0 27 ------- null}
- -t 0.5683824 -s 0 -d 6 -p tcp -e 1040 -c 0 -i 38 -a 0 -x {0.0 5.0 27 ------- null}
h -t 0.5683824 -s 0 -d 6 -p tcp -e 1040 -c 0 -i 38 -a 0 -x {0.0 5.0 -1 ------- null}
+ -t 0.5683824 -s 0 -d 6 -p tcp -e 1040 -c 0 -i 39 -a 0 -x {0.0 5.0 28 ------- null}
+ -t 0.5683824 -s 0 -d 6 -p tcp -e 1040 -c 0 -i 40 -a 0 -x {0.0 5.0 29 ------- null}
- -t 0.5692352 -s 0 -d 6 -p tcp -e 1040 -c 0 -i 39 -a 0 -x {0.0 5.0 28 ------- null}
h -t 0.5692352 -s 0 -d 6 -p tcp -e 1040 -c 0 -i 39 -a 0 -x {0.0 5.0 -1 ------- null}
r -t 0.5696072 -s 4 -d 5 -p tcp -e 1040 -c 0 -i 31 -a 0 -x {0.0 5.0 23 ------- null}
- -t 0.570088 -s 0 -d 6 -p tcp -e 1040 -c 0 -i 40 -a 0 -x {0.0 5.0 29 ------- null}
h -t 0.570088 -s 0 -d 6 -p tcp -e 1040 -c 0 -i 40 -a 0 -x {0.0 5.0 -1 ------- null}
- -t 0.5709096 -s 4 -d 5 -p tcp -e 1040 -c 0 -i 35 -a 0 -x {0.0 5.0 25 ------- null}
h -t 0.5709096 -s 4 -d 5 -p tcp -e 1040 -c 0 -i 35 -a 0 -x {0.0 5.0 -1 ------- null}
r -t 0.5716072 -s 5 -d 4 -p ack -e 40 -c 0 -i 41 -a 0 -x {5.0 0.0 22 ------- null}