h 0.1 0 6 tcp 40 ------- 0 0.0 5.0 0 0
+ 0.11 0 6 tcp 40 ------- 0 0.0 5.0 0 0
- 0.11 0 6 tcp 40 ------- 0 0.0 5.0 0 0
r 0.120055 6 4 tcp 40 ------- 0 0.0 5.0 0 0
+ 0.120055 4 5 tcp 40 ------- 0 0.0 5.0 0 0
- 0.120055 4 5 tcp 40 ------- 0 0.0 5.0 0 0
r 0.130375 4 5 tcp 40 ------- 0 0.0 5.0 0 0
+ 0.130375 5 4 ack 40 ------- 0 5.0 0.0 0 1
- 0.130375 5 4 ack 40 ------- 0 5.0 0.0 0 1
r 0.140695 5 4 ack 40 ------- 0 5.0 0.0 0 1
h 0.140695 4 6 ack 40 ------- 0 5.0 0.0 0 1
+ 0.150695 4 6 ack 40 ------- 0 5.0 0.0 0 1
- 0.150695 4 6 ack 40 ------- 0 5.0 0.0 0 1
r 0.16075 6 0 ack 40 ------- 0 5.0 0.0 0 1
h 0.16075 0 6 tcp 1040 ------- 0 0.0 5.0 1 2
h 0.16075 0 6 tcp 1040 ------- 0 0.0 5.0 2 3
+ 0.17075 0 6 tcp 1040 ------- 0 0.0 5.0 1 2
- 0.17075 0 6 tcp 1040 ------- 0 0.0 5.0 1 2
+ 0.17075 0 6 tcp 1040 ------- 0 0.0 5.0 2 3
- 0.171603 0 6 tcp 1040 ------- 0 0.0 5.0 2 3
r 0.181598 6 4 tcp 1040 ------- 0 0.0 5.0 1 2
+ 0.181598 4 5 tcp 1040 ------- 0 0.0 5.0 1 2
- 0.181598 4 5 tcp 1040 ------- 0 0.0 5.0 1 2
r 0.18245 6 4 tcp 1040 ------- 0 0.0 5.0 2 3
+ 0.18245 4 5 tcp 1040 ------- 0 0.0 5.0 2 3
- 0.189918 4 5 tcp 1040 ------- 0 0.0 5.0 2 3
r 0.199918 4 5 tcp 1040 ------- 0 0.0 5.0 1 2
r 0.208238 4 5 tcp 1040 ------- 0 0.0 5.0 2 3
+ 0.208238 5 4 ack 40 ------- 0 5.0 0.0 2 4
- 0.208238 5 4 ack 40 ------- 0 5.0 0.0 2 4
r 0.218558 5 4 ack 40 ------- 0 5.0 0.0 2 4
h 0.218558 4 6 ack 40 ------- 0 5.0 0.0 2 4
+ 0.228558 4 6 ack 40 ------- 0 5.0 0.0 2 4
- 0.228558 4 6 ack 40 ------- 0 5.0 0.0 2 4
r 0.238613 6 0 ack 40 ------- 0 5.0 0.0 2 4
h 0.238613 0 6 tcp 1040 ------- 0 0.0 5.0 3 5
h 0.238613 0 6 tcp 1040 ------- 0 0.0 5.0 4 6
h 0.238613 0 6 tcp 1040 ------- 0 0.0 5.0 5 7
+ 0.248613 0 6 tcp 1040 ------- 0 0.0 5.0 3 5
- 0.248613 0 6 tcp 1040 ------- 0 0.0 5.0 3 5
+ 0.248613 0 6 tcp 1040 ------- 0 0.0 5.0 4 6
+ 0.248613 0 6 tcp 1040 ------- 0 0.0 5.0 5 7
- 0.249466 0 6 tcp 1040 ------- 0 0.0 5.0 4 6
- 0.250318 0 6 tcp 1040 ------- 0 0.0 5.0 5 7
r 0.25946 6 4 tcp 1040 ------- 0 0.0 5.0 3 5
+ 0.25946 4 5 tcp 1040 ------- 0 0.0 5.0 3 5
- 0.25946 4 5 tcp 1040 ------- 0 0.0 5.0 3 5
r 0.260313 6 4 tcp 1040 ------- 0 0.0 5.0 4 6
+ 0.260313 4 5 tcp 1040 ------- 0 0.0 5.0 4 6
r 0.261166 6 4 tcp 1040 ------- 0 0.0 5.0 5 7
+ 0.261166 4 5 tcp 1040 ------- 0 0.0 5.0 5 7
- 0.26778 4 5 tcp 1040 ------- 0 0.0 5.0 4 6
- 0.2761 4 5 tcp 1040 ------- 0 0.0 5.0 5 7
r 0.27778 4 5 tcp 1040 ------- 0 0.0 5.0 3 5
r 0.2861 4 5 tcp 1040 ------- 0 0.0 5.0 4 6
+ 0.2861 5 4 ack 40 ------- 0 5.0 0.0 4 8
- 0.2861 5 4 ack 40 ------- 0 5.0 0.0 4 8
r 0.29442 4 5 tcp 1040 ------- 0 0.0 5.0 5 7
r 0.29642 5 4 ack 40 ------- 0 5.0 0.0 4 8
h 0.29642 4 6 ack 40 ------- 0 5.0 0.0 4 8
+ 0.30642 4 6 ack 40 ------- 0 5.0 0.0 4 8
- 0.30642 4 6 ack 40 ------- 0 5.0 0.0 4 8
r 0.316475 6 0 ack 40 ------- 0 5.0 0.0 4 8
h 0.316475 0 6 tcp 1040 ------- 0 0.0 5.0 6 9
h 0.316475 0 6 tcp 1040 ------- 0 0.0 5.0 7 10
h 0.316475 0 6 tcp 1040 ------- 0 0.0 5.0 8 11
+ 0.326475 0 6 tcp 1040 ------- 0 0.0 5.0 6 9
- 0.326475 0 6 tcp 1040 ------- 0 0.0 5.0 6 9
+ 0.326475 0 6 tcp 1040 ------- 0 0.0 5.0 7 10
+ 0.326475 0 6 tcp 1040 ------- 0 0.0 5.0 8 11
- 0.327328 0 6 tcp 1040 ------- 0 0.0 5.0 7 10
- 0.328181 0 6 tcp 1040 ------- 0 0.0 5.0 8 11
r 0.337322 6 4 tcp 1040 ------- 0 0.0 5.0 6 9
+ 0.337322 4 5 tcp 1040 ------- 0 0.0 5.0 6 9
- 0.337322 4 5 tcp 1040 ------- 0 0.0 5.0 6 9
r 0.338175 6 4 tcp 1040 ------- 0 0.0 5.0 7 10
+ 0.338175 4 5 tcp 1040 ------- 0 0.0 5.0 7 10
r 0.339028 6 4 tcp 1040 ------- 0 0.0 5.0 8 11
+ 0.339028 4 5 tcp 1040 ------- 0 0.0 5.0 8 11
- 0.345642 4 5 tcp 1040 ------- 0 0.0 5.0 7 10
- 0.353962 4 5 tcp 1040 ------- 0 0.0 5.0 8 11
r 0.355642 4 5 tcp 1040 ------- 0 0.0 5.0 6 9
+ 0.355642 5 4 ack 40 ------- 0 5.0 0.0 6 12
- 0.355642 5 4 ack 40 ------- 0 5.0 0.0 6 12
r 0.363962 4 5 tcp 1040 ------- 0 0.0 5.0 7 10
r 0.365962 5 4 ack 40 ------- 0 5.0 0.0 6 12
h 0.365962 4 6 ack 40 ------- 0 5.0 0.0 6 12
r 0.372282 4 5 tcp 1040 ------- 0 0.0 5.0 8 11
+ 0.372282 5 4 ack 40 ------- 0 5.0 0.0 8 13
- 0.372282 5 4 ack 40 ------- 0 5.0 0.0 8 13
+ 0.375962 4 6 ack 40 ------- 0 5.0 0.0 6 12
- 0.375962 4 6 ack 40 ------- 0 5.0 0.0 6 12
r 0.382602 5 4 ack 40 ------- 0 5.0 0.0 8 13
h 0.382602 4 6 ack 40 ------- 0 5.0 0.0 8 13
r 0.386018 6 0 ack 40 ------- 0 5.0 0.0 6 12
h 0.386018 0 6 tcp 1040 ------- 0 0.0 5.0 9 14
h 0.386018 0 6 tcp 1040 ------- 0 0.0 5.0 10 15
h 0.386018 0 6 tcp 1040 ------- 0 0.0 5.0 11 16
+ 0.392602 4 6 ack 40 ------- 0 5.0 0.0 8 13
- 0.392602 4 6 ack 40 ------- 0 5.0 0.0 8 13
+ 0.396018 0 6 tcp 1040 ------- 0 0.0 5.0 9 14
- 0.396018 0 6 tcp 1040 ------- 0 0.0 5.0 9 14
+ 0.396018 0 6 tcp 1040 ------- 0 0.0 5.0 10 15
+ 0.396018 0 6 tcp 1040 ------- 0 0.0 5.0 11 16
- 0.39687 0 6 tcp 1040 ------- 0 0.0 5.0 10 15
- 0.397723 0 6 tcp 1040 ------- 0 0.0 5.0 11 16
r 0.402658 6 0 ack 40 ------- 0 5.0 0.0 8 13
h 0.402658 0 6 tcp 1040 ------- 0 0.0 5.0 12 17
h 0.402658 0 6 tcp 1040 ------- 0 0.0 5.0 13 18
h 0.402658 0 6 tcp 1040 ------- 0 0.0 5.0 14 19
r 0.406865 6 4 tcp 1040 ------- 0 0.0 5.0 9 14
+ 0.406865 4 5 tcp 1040 ------- 0 0.0 5.0 9 14
- 0.406865 4 5 tcp 1040 ------- 0 0.0 5.0 9 14
r 0.407718 6 4 tcp 1040 ------- 0 0.0 5.0 10 15
+ 0.407718 4 5 tcp 1040 ------- 0 0.0 5.0 10 15
r 0.40857 6 4 tcp 1040 ------- 0 0.0 5.0 11 16
+ 0.40857 4 5 tcp 1040 ------- 0 0.0 5.0 11 16
+ 0.412658 0 6 tcp 1040 ------- 0 0.0 5.0 12 17
- 0.412658 0 6 tcp 1040 ------- 0 0.0 5.0 12 17
+ 0.412658 0 6 tcp 1040 ------- 0 0.0 5.0 13 18
+ 0.412658 0 6 tcp 1040 ------- 0 0.0 5.0 14 19
- 0.41351 0 6 tcp 1040 ------- 0 0.0 5.0 13 18
- 0.414363 0 6 tcp 1040 ------- 0 0.0 5.0 14 19
- 0.415185 4 5 tcp 1040 ------- 0 0.0 5.0 10 15
r 0.423505 6 4 tcp 1040 ------- 0 0.0 5.0 12 17
+ 0.423505 4 5 tcp 1040 ------- 0 0.0 5.0 12 17
- 0.423505 4 5 tcp 1040 ------- 0 0.0 5.0 11 16
r 0.424358 6 4 tcp 1040 ------- 0 0.0 5.0 13 18
+ 0.424358 4 5 tcp 1040 ------- 0 0.0 5.0 13 18
r 0.425185 4 5 tcp 1040 ------- 0 0.0 5.0 9 14
r 0.42521 6 4 tcp 1040 ------- 0 0.0 5.0 14 19
+ 0.42521 4 5 tcp 1040 ------- 0 0.0 5.0 14 19
- 0.431825 4 5 tcp 1040 ------- 0 0.0 5.0 12 17
r 0.433505 4 5 tcp 1040 ------- 0 0.0 5.0 10 15
+ 0.433505 5 4 ack 40 ------- 0 5.0 0.0 10 20
- 0.433505 5 4 ack 40 ------- 0 5.0 0.0 10 20
- 0.440145 4 5 tcp 1040 ------- 0 0.0 5.0 13 18
r 0.441825 4 5 tcp 1040 ------- 0 0.0 5.0 11 16
r 0.443825 5 4 ack 40 ------- 0 5.0 0.0 10 20
h 0.443825 4 6 ack 40 ------- 0 5.0 0.0 10 20
- 0.448465 4 5 tcp 1040 ------- 0 0.0 5.0 14 19
r 0.450145 4 5 tcp 1040 ------- 0 0.0 5.0 12 17
+ 0.450145 5 4 ack 40 ------- 0 5.0 0.0 12 21
- 0.450145 5 4 ack 40 ------- 0 5.0 0.0 12 21
+ 0.453825 4 6 ack 40 ------- 0 5.0 0.0 10 20
- 0.453825 4 6 ack 40 ------- 0 5.0 0.0 10 20
r 0.458465 4 5 tcp 1040 ------- 0 0.0 5.0 13 18
r 0.460465 5 4 ack 40 ------- 0 5.0 0.0 12 21
h 0.460465 4 6 ack 40 ------- 0 5.0 0.0 12 21
r 0.46388 6 0 ack 40 ------- 0 5.0 0.0 10 20
h 0.46388 0 6 tcp 1040 ------- 0 0.0 5.0 15 22
h 0.46388 0 6 tcp 1040 ------- 0 0.0 5.0 16 23
h 0.46388 0 6 tcp 1040 ------- 0 0.0 5.0 17 24
r 0.466785 4 5 tcp 1040 ------- 0 0.0 5.0 14 19
+ 0.466785 5 4 ack 40 ------- 0 5.0 0.0 14 25
- 0.466785 5 4 ack 40 ------- 0 5.0 0.0 14 25
+ 0.470465 4 6 ack 40 ------- 0 5.0 0.0 12 21
- 0.470465 4 6 ack 40 ------- 0 5.0 0.0 12 21
+ 0.47388 0 6 tcp 1040 ------- 0 0.0 5.0 15 22
- 0.47388 0 6 tcp 1040 ------- 0 0.0 5.0 15 22
+ 0.47388 0 6 tcp 1040 ------- 0 0.0 5.0 16 23
+ 0.47388 0 6 tcp 1040 ------- 0 0.0 5.0 17 24
- 0.474733 0 6 tcp 1040 ------- 0 0.0 5.0 16 23
- 0.475586 0 6 tcp 1040 ------- 0 0.0 5.0 17 24
r 0.477105 5 4 ack 40 ------- 0 5.0 0.0 14 25
h 0.477105 4 6 ack 40 ------- 0 5.0 0.0 14 25
r 0.48052 6 0 ack 40 ------- 0 5.0 0.0 12 21
h 0.48052 0 6 tcp 1040 ------- 0 0.0 5.0 18 26
h 0.48052 0 6 tcp 1040 ------- 0 0.0 5.0 19 27
h 0.48052 0 6 tcp 1040 ------- 0 0.0 5.0 20 28
r 0.484727 6 4 tcp 1040 ------- 0 0.0 5.0 15 22
+ 0.484727 4 5 tcp 1040 ------- 0 0.0 5.0 15 22
- 0.484727 4 5 tcp 1040 ------- 0 0.0 5.0 15 22
r 0.48558 6 4 tcp 1040 ------- 0 0.0 5.0 16 23
+ 0.48558 4 5 tcp 1040 ------- 0 0.0 5.0 16 23
r 0.486433 6 4 tcp 1040 ------- 0 0.0 5.0 17 24
+ 0.486433 4 5 tcp 1040 ------- 0 0.0 5.0 17 24
+ 0.487105 4 6 ack 40 ------- 0 5.0 0.0 14 25
- 0.487105 4 6 ack 40 ------- 0 5.0 0.0 14 25
+ 0.49052 0 6 tcp 1040 ------- 0 0.0 5.0 18 26
- 0.49052 0 6 tcp 1040 ------- 0 0.0 5.0 18 26
+ 0.49052 0 6 tcp 1040 ------- 0 0.0 5.0 19 27
+ 0.49052 0 6 tcp 1040 ------- 0 0.0 5.0 20 28
- 0.491373 0 6 tcp 1040 ------- 0 0.0 5.0 19 27
- 0.492226 0 6 tcp 1040 ------- 0 0.0 5.0 20 28
- 0.493047 4 5 tcp 1040 ------- 0 0.0 5.0 16 23
r 0.49716 6 0 ack 40 ------- 0 5.0 0.0 14 25
h 0.49716 0 6 tcp 1040 ------- 0 0.0 5.0 21 29
h 0.49716 0 6 tcp 1040 ------- 0 0.0 5.0 22 30
h 0.49716 0 6 tcp 1040 ------- 0 0.0 5.0 23 31
r 0.501367 6 4 tcp 1040 ------- 0 0.0 5.0 18 26
+ 0.501367 4 5 tcp 1040 ------- 0 0.0 5.0 18 26
- 0.501367 4 5 tcp 1040 ------- 0 0.0 5.0 17 24
r 0.50222 6 4 tcp 1040 ------- 0 0.0 5.0 19 27
+ 0.50222 4 5 tcp 1040 ------- 0 0.0 5.0 19 27
r 0.503047 4 5 tcp 1040 ------- 0 0.0 5.0 15 22
r 0.503073 6 4 tcp 1040 ------- 0 0.0 5.0 20 28
+ 0.503073 4 5 tcp 1040 ------- 0 0.0 5.0 20 28
+ 0.50716 0 6 tcp 1040 ------- 0 0.0 5.0 21 29
- 0.50716 0 6 tcp 1040 ------- 0 0.0 5.0 21 29
+ 0.50716 0 6 tcp 1040 ------- 0 0.0 5.0 22 30
+ 0.50716 0 6 tcp 1040 ------- 0 0.0 5.0 23 31
- 0.508013 0 6 tcp 1040 ------- 0 0.0 5.0 22 30
- 0.508866 0 6 tcp 1040 ------- 0 0.0 5.0 23 31
- 0.509687 4 5 tcp 1040 ------- 0 0.0 5.0 18 26
r 0.511367 4 5 tcp 1040 ------- 0 0.0 5.0 16 23
+ 0.511367 5 4 ack 40 ------- 0 5.0 0.0 16 32
- 0.511367 5 4 ack 40 ------- 0 5.0 0.0 16 32
r 0.518007 6 4 tcp 1040 ------- 0 0.0 5.0 21 29
+ 0.518007 4 5 tcp 1040 ------- 0 0.0 5.0 21 29
- 0.518007 4 5 tcp 1040 ------- 0 0.0 5.0 19 27
r 0.51886 6 4 tcp 1040 ------- 0 0.0 5.0 22 30
+ 0.51886 4 5 tcp 1040 ------- 0 0.0 5.0 22 30
r 0.519687 4 5 tcp 1040 ------- 0 0.0 5.0 17 24
r 0.519713 6 4 tcp 1040 ------- 0 0.0 5.0 23 31
+ 0.519713 4 5 tcp 1040 ------- 0 0.0 5.0 23 31
r 0.521687 5 4 ack 40 ------- 0 5.0 0.0 16 32
h 0.521687 4 6 ack 40 ------- 0 5.0 0.0 16 32
- 0.526327 4 5 tcp 1040 ------- 0 0.0 5.0 20 28
r 0.528007 4 5 tcp 1040 ------- 0 0.0 5.0 18 26
+ 0.528007 5 4 ack 40 ------- 0 5.0 0.0 18 33
- 0.528007 5 4 ack 40 ------- 0 5.0 0.0 18 33
+ 0.531687 4 6 ack 40 ------- 0 5.0 0.0 16 32
- 0.531687 4 6 ack 40 ------- 0 5.0 0.0 16 32
- 0.534647 4 5 tcp 1040 ------- 0 0.0 5.0 21 29
r 0.536327 4 5 tcp 1040 ------- 0 0.0 5.0 19 27
r 0.538327 5 4 ack 40 ------- 0 5.0 0.0 18 33
h 0.538327 4 6 ack 40 ------- 0 5.0 0.0 18 33
r 0.541742 6 0 ack 40 ------- 0 5.0 0.0 16 32
h 0.541742 0 6 tcp 1040 ------- 0 0.0 5.0 24 34
h 0.541742 0 6 tcp 1040 ------- 0 0.0 5.0 25 35
h 0.541742 0 6 tcp 1040 ------- 0 0.0 5.0 26 36
- 0.542967 4 5 tcp 1040 ------- 0 0.0 5.0 22 30
r 0.544647 4 5 tcp 1040 ------- 0 0.0 5.0 20 28
+ 0.544647 5 4 ack 40 ------- 0 5.0 0.0 20 37
- 0.544647 5 4 ack 40 ------- 0 5.0 0.0 20 37
+ 0.548327 4 6 ack 40 ------- 0 5.0 0.0 18 33
- 0.548327 4 6 ack 40 ------- 0 5.0 0.0 18 33
- 0.551287 4 5 tcp 1040 ------- 0 0.0 5.0 23 31
+ 0.551742 0 6 tcp 1040 ------- 0 0.0 5.0 24 34
- 0.551742 0 6 tcp 1040 ------- 0 0.0 5.0 24 34
+ 0.551742 0 6 tcp 1040 ------- 0 0.0 5.0 25 35
+ 0.551742 0 6 tcp 1040 ------- 0 0.0 5.0 26 36
- 0.552595 0 6 tcp 1040 ------- 0 0.0 5.0 25 35
r 0.552967 4 5 tcp 1040 ------- 0 0.0 5.0 21 29
- 0.553448 0 6 tcp 1040 ------- 0 0.0 5.0 26 36
r 0.554967 5 4 ack 40 ------- 0 5.0 0.0 20 37
h 0.554967 4 6 ack 40 ------- 0 5.0 0.0 20 37
r 0.558382 6 0 ack 40 ------- 0 5.0 0.0 18 33
h 0.558382 0 6 tcp 1040 ------- 0 0.0 5.0 27 38
h 0.558382 0 6 tcp 1040 ------- 0 0.0 5.0 28 39
h 0.558382 0 6 tcp 1040 ------- 0 0.0 5.0 29 40
r 0.561287 4 5 tcp 1040 ------- 0 0.0 5.0 22 30
+ 0.561287 5 4 ack 40 ------- 0 5.0 0.0 22 41
- 0.561287 5 4 ack 40 ------- 0 5.0 0.0 22 41
r 0.56259 6 4 tcp 1040 ------- 0 0.0 5.0 24 34
+ 0.56259 4 5 tcp 1040 ------- 0 0.0 5.0 24 34
- 0.56259 4 5 tcp 1040 ------- 0 0.0 5.0 24 34
r 0.563442 6 4 tcp 1040 ------- 0 0.0 5.0 25 35
+ 0.563442 4 5 tcp 1040 ------- 0 0.0 5.0 25 35
r 0.564295 6 4 tcp 1040 ------- 0 0.0 5.0 26 36
+ 0.564295 4 5 tcp 1040 ------- 0 0.0 5.0 26 36
+ 0.564967 4 6 ack 40 ------- 0 5.0 0.0 20 37
- 0.564967 4 6 ack 40 ------- 0 5.0 0.0 20 37
+ 0.568382 0 6 tcp 1040 ------- 0 0.0 5.0 27 38
- 0.568382 0 6 tcp 1040 ------- 0 0.0 5.0 27 38
+ 0.568382 0 6 tcp 1040 ------- 0 0.0 5.0 28 39
+ 0.568382 0 6 tcp 1040 ------- 0 0.0 5.0 29 40
- 0.569235 0 6 tcp 1040 ------- 0 0.0 5.0 28 39
r 0.569607 4 5 tcp 1040 ------- 0 0.0 5.0 23 31
- 0.570088 0 6 tcp 1040 ------- 0 0.0 5.0 29 40
- 0.57091 4 5 tcp 1040 ------- 0 0.0 5.0 25 35
r 0.571607 5 4 ack 40 ------- 0 5.0 0.0 22 41
h 0.571607 4 6 ack 40 ------- 0 5.0 0.0 22 41
r 0.575022 6 0 ack 40 ------- 0 5.0 0.0 20 37
h 0.575022 0 6 tcp 1040 ------- 0 0.0 5.0 30 42
h 0.575022 0 6 tcp 1040 ------- 0 0.0 5.0 31 43
h 0.575022 0 6 tcp 1040 ------- 0 0.0 5.0 32 44
r 0.57923 6 4 tcp 1040 ------- 0 0.0 5.0 27 38
+ 0.57923 4 5 tcp 1040 ------- 0 0.0 5.0 27 38
- 0.57923 4 5 tcp 1040 ------- 0 0.0 5.0 26 36
r 0.580082 6 4 tcp 1040 ------- 0 0.0 5.0 28 39
+ 0.580082 4 5 tcp 1040 ------- 0 0.0 5.0 28 39
r 0.58091 4 5 tcp 1040 ------- 0 0.0 5.0 24 34
+ 0.58091 5 4 ack 40 ------- 0 5.0 0.0 24 45
- 0.58091 5 4 ack 40 ------- 0 5.0 0.0 24 45
r 0.580935 6 4 tcp 1040 ------- 0 0.0 5.0 29 40
+ 0.580935 4 5 tcp 1040 ------- 0 0.0 5.0 29 40
+ 0.581607 4 6 ack 40 ------- 0 5.0 0.0 22 41
- 0.581607 4 6 ack 40 ------- 0 5.0 0.0 22 41
+ 0.585022 0 6 tcp 1040 ------- 0 0.0 5.0 30 42
- 0.585022 0 6 tcp 1040 ------- 0 0.0 5.0 30 42
+ 0.585022 0 6 tcp 1040 ------- 0 0.0 5.0 31 43
+ 0.585022 0 6 tcp 1040 ------- 0 0.0 5.0 32 44
- 0.585875 0 6 tcp 1040 ------- 0 0.0 5.0 31 43
- 0.586728 0 6 tcp 1040 ------- 0 0.0 5.0 32 44
- 0.58755 4 5 tcp 1040 ------- 0 0.0 5.0 27 38
r 0.58923 4 5 tcp 1040 ------- 0 0.0 5.0 25 35
r 0.59123 5 4 ack 40 ------- 0 5.0 0.0 24 45
h 0.59123 4 6 ack 40 ------- 0 5.0 0.0 24 45
r 0.591662 6 0 ack 40 ------- 0 5.0 0.0 22 41
h 0.591662 0 6 tcp 1040 ------- 0 0.0 5.0 33 46
h 0.591662 0 6 tcp 1040 ------- 0 0.0 5.0 34 47
h 0.591662 0 6 tcp 1040 ------- 0 0.0 5.0 35 48
r 0.59587 6 4 tcp 1040 ------- 0 0.0 5.0 30 42
+ 0.59587 4 5 tcp 1040 ------- 0 0.0 5.0 30 42
- 0.59587 4 5 tcp 1040 ------- 0 0.0 5.0 28 39
r 0.596722 6 4 tcp 1040 ------- 0 0.0 5.0 31 43
+ 0.596722 4 5 tcp 1040 ------- 0 0.0 5.0 31 43
r 0.59755 4 5 tcp 1040 ------- 0 0.0 5.0 26 36
+ 0.59755 5 4 ack 40 ------- 0 5.0 0.0 26 49
- 0.59755 5 4 ack 40 ------- 0 5.0 0.0 26 49
r 0.597575 6 4 tcp 1040 ------- 0 0.0 5.0 32 44
+ 0.597575 4 5 tcp 1040 ------- 0 0.0 5.0 32 44
+ 0.60123 4 6 ack 40 ------- 0 5.0 0.0 24 45
- 0.60123 4 6 ack 40 ------- 0 5.0 0.0 24 45
+ 0.601662 0 6 tcp 1040 ------- 0 0.0 5.0 33 46
- 0.601662 0 6 tcp 1040 ------- 0 0.0 5.0 33 46
+ 0.601662 0 6 tcp 1040 ------- 0 0.0 5.0 34 47
+ 0.601662 0 6 tcp 1040 ------- 0 0.0 5.0 35 48
- 0.602515 0 6 tcp 1040 ------- 0 0.0 5.0 34 47
- 0.603368 0 6 tcp 1040 ------- 0 0.0 5.0 35 48
- 0.60419 4 5 tcp 1040 ------- 0 0.0 5.0 29 40
r 0.60587 4 5 tcp 1040 ------- 0 0.0 5.0 27 38
r 0.60787 5 4 ack 40 ------- 0 5.0 0.0 26 49
h 0.60787 4 6 ack 40 ------- 0 5.0 0.0 26 49
r 0.611285 6 0 ack 40 ------- 0 5.0 0.0 24 45
h 0.611285 0 6 tcp 1040 ------- 0 0.0 5.0 36 50
h 0.611285 0 6 tcp 1040 ------- 0 0.0 5.0 37 51
h 0.611285 0 6 tcp 1040 ------- 0 0.0 5.0 38 52
r 0.61251 6 4 tcp 1040 ------- 0 0.0 5.0 33 46
+ 0.61251 4 5 tcp 1040 ------- 0 0.0 5.0 33 46
- 0.61251 4 5 tcp 1040 ------- 0 0.0 5.0 30 42
r 0.613362 6 4 tcp 1040 ------- 0 0.0 5.0 34 47
+ 0.613362 4 5 tcp 1040 ------- 0 0.0 5.0 34 47
r 0.61419 4 5 tcp 1040 ------- 0 0.0 5.0 28 39
+ 0.61419 5 4 ack 40 ------- 0 5.0 0.0 28 53
- 0.61419 5 4 ack 40 ------- 0 5.0 0.0 28 53
r 0.614215 6 4 tcp 1040 ------- 0 0.0 5.0 35 48
+ 0.614215 4 5 tcp 1040 ------- 0 0.0 5.0 35 48
d 0.614215 4 5 tcp 1040 ------- 0 0.0 5.0 35 48
+ 0.61787 4 6 ack 40 ------- 0 5.0 0.0 26 49
- 0.61787 4 6 ack 40 ------- 0 5.0 0.0 26 49
- 0.62083 4 5 tcp 1040 ------- 0 0.0 5.0 31 43
+ 0.621285 0 6 tcp 1040 ------- 0 0.0 5.0 36 50
- 0.621285 0 6 tcp 1040 ------- 0 0.0 5.0 36 50
+ 0.621285 0 6 tcp 1040 ------- 0 0.0 5.0 37 51
+ 0.621285 0 6 tcp 1040 ------- 0 0.0 5.0 38 52
- 0.622138 0 6 tcp 1040 ------- 0 0.0 5.0 37 51
r 0.62251 4 5 tcp 1040 ------- 0 0.0 5.0 29 40
- 0.62299 0 6 tcp 1040 ------- 0 0.0 5.0 38 52
r 0.62451 5 4 ack 40 ------- 0 5.0 0.0 28 53
h 0.62451 4 6 ack 40 ------- 0 5.0 0.0 28 53
r 0.627925 6 0 ack 40 ------- 0 5.0 0.0 26 49
h 0.627925 0 6 tcp 1040 ------- 0 0.0 5.0 39 54
h 0.627925 0 6 tcp 1040 ------- 0 0.0 5.0 40 55
h 0.627925 0 6 tcp 1040 ------- 0 0.0 5.0 41 56
- 0.62915 4 5 tcp 1040 ------- 0 0.0 5.0 32 44
r 0.63083 4 5 tcp 1040 ------- 0 0.0 5.0 30 42
+ 0.63083 5 4 ack 40 ------- 0 5.0 0.0 30 57
- 0.63083 5 4 ack 40 ------- 0 5.0 0.0 30 57
r 0.632132 6 4 tcp 1040 ------- 0 0.0 5.0 36 50
+ 0.632132 4 5 tcp 1040 ------- 0 0.0 5.0 36 50
r 0.632985 6 4 tcp 1040 ------- 0 0.0 5.0 37 51
+ 0.632985 4 5 tcp 1040 ------- 0 0.0 5.0 37 51
r 0.633838 6 4 tcp 1040 ------- 0 0.0 5.0 38 52
+ 0.633838 4 5 tcp 1040 ------- 0 0.0 5.0 38 52
d 0.633838 4 5 tcp 1040 ------- 0 0.0 5.0 38 52
+ 0.63451 4 6 ack 40 ------- 0 5.0 0.0 28 53
- 0.63451 4 6 ack 40 ------- 0 5.0 0.0 28 53
- 0.63747 4 5 tcp 1040 ------- 0 0.0 5.0 33 46
+ 0.637925 0 6 tcp 1040 ------- 0 0.0 5.0 39 54
- 0.637925 0 6 tcp 1040 ------- 0 0.0 5.0 39 54
+ 0.637925 0 6 tcp 1040 ------- 0 0.0 5.0 40 55
+ 0.637925 0 6 tcp 1040 ------- 0 0.0 5.0 41 56
- 0.638778 0 6 tcp 1040 ------- 0 0.0 5.0 40 55
r 0.63915 4 5 tcp 1040 ------- 0 0.0 5.0 31 43
- 0.63963 0 6 tcp 1040 ------- 0 0.0 5.0 41 56
r 0.64115 5 4 ack 40 ------- 0 5.0 0.0 30 57
h 0.64115 4 6 ack 40 ------- 0 5.0 0.0 30 57
r 0.644565 6 0 ack 40 ------- 0 5.0 0.0 28 53
h 0.644565 0 6 tcp 1040 ------- 0 0.0 5.0 42 58
h 0.644565 0 6 tcp 1040 ------- 0 0.0 5.0 43 59
h 0.644565 0 6 tcp 1040 ------- 0 0.0 5.0 44 60
- 0.64579 4 5 tcp 1040 ------- 0 0.0 5.0 34 47
r 0.64747 4 5 tcp 1040 ------- 0 0.0 5.0 32 44
+ 0.64747 5 4 ack 40 ------- 0 5.0 0.0 32 61
- 0.64747 5 4 ack 40 ------- 0 5.0 0.0 32 61
r 0.648772 6 4 tcp 1040 ------- 0 0.0 5.0 39 54
+ 0.648772 4 5 tcp 1040 ------- 0 0.0 5.0 39 54
r 0.649625 6 4 tcp 1040 ------- 0 0.0 5.0 40 55
+ 0.649625 4 5 tcp 1040 ------- 0 0.0 5.0 40 55
r 0.650478 6 4 tcp 1040 ------- 0 0.0 5.0 41 56
+ 0.650478 4 5 tcp 1040 ------- 0 0.0 5.0 41 56
d 0.650478 4 5 tcp 1040 ------- 0 0.0 5.0 41 56
+ 0.65115 4 6 ack 40 ------- 0 5.0 0.0 30 57
- 0.65115 4 6 ack 40 ------- 0 5.0 0.0 30 57
- 0.65411 4 5 tcp 1040 ------- 0 0.0 5.0 36 50
+ 0.654565 0 6 tcp 1040 ------- 0 0.0 5.0 42 58
- 0.654565 0 6 tcp 1040 ------- 0 0.0 5.0 42 58
+ 0.654565 0 6 tcp 1040 ------- 0 0.0 5.0 43 59
+ 0.654565 0 6 tcp 1040 ------- 0 0.0 5.0 44 60
- 0.655418 0 6 tcp 1040 ------- 0 0.0 5.0 43 59
r 0.65579 4 5 tcp 1040 ------- 0 0.0 5.0 33 46
- 0.65627 0 6 tcp 1040 ------- 0 0.0 5.0 44 60
r 0.65779 5 4 ack 40 ------- 0 5.0 0.0 32 61
h 0.65779 4 6 ack 40 ------- 0 5.0 0.0 32 61
r 0.661205 6 0 ack 40 ------- 0 5.0 0.0 30 57
h 0.661205 0 6 tcp 1040 ------- 0 0.0 5.0 45 62
h 0.661205 0 6 tcp 1040 ------- 0 0.0 5.0 46 63
h 0.661205 0 6 tcp 1040 ------- 0 0.0 5.0 47 64
- 0.66243 4 5 tcp 1040 ------- 0 0.0 5.0 37 51
r 0.66411 4 5 tcp 1040 ------- 0 0.0 5.0 34 47
+ 0.66411 5 4 ack 40 ------- 0 5.0 0.0 34 65
- 0.66411 5 4 ack 40 ------- 0 5.0 0.0 34 65
r 0.665412 6 4 tcp 1040 ------- 0 0.0 5.0 42 58
+ 0.665412 4 5 tcp 1040 ------- 0 0.0 5.0 42 58
r 0.666265 6 4 tcp 1040 ------- 0 0.0 5.0 43 59
+ 0.666265 4 5 tcp 1040 ------- 0 0.0 5.0 43 59
r 0.667118 6 4 tcp 1040 ------- 0 0.0 5.0 44 60
+ 0.667118 4 5 tcp 1040 ------- 0 0.0 5.0 44 60
d 0.667118 4 5 tcp 1040 ------- 0 0.0 5.0 44 60
+ 0.66779 4 6 ack 40 ------- 0 5.0 0.0 32 61
- 0.66779 4 6 ack 40 ------- 0 5.0 0.0 32 61
- 0.67075 4 5 tcp 1040 ------- 0 0.0 5.0 39 54
+ 0.671205 0 6 tcp 1040 ------- 0 0.0 5.0 45 62
- 0.671205 0 6 tcp 1040 ------- 0 0.0 5.0 45 62
+ 0.671205 0 6 tcp 1040 ------- 0 0.0 5.0 46 63
+ 0.671205 0 6 tcp 1040 ------- 0 0.0 5.0 47 64
- 0.672058 0 6 tcp 1040 ------- 0 0.0 5.0 46 63
r 0.67243 4 5 tcp 1040 ------- 0 0.0 5.0 36 50
+ 0.67243 5 4 ack 40 ------- 0 5.0 0.0 34 66
- 0.67243 5 4 ack 40 ------- 0 5.0 0.0 34 66
- 0.67291 0 6 tcp 1040 ------- 0 0.0 5.0 47 64
r 0.67443 5 4 ack 40 ------- 0 5.0 0.0 34 65
h 0.67443 4 6 ack 40 ------- 0 5.0 0.0 34 65
r 0.677845 6 0 ack 40 ------- 0 5.0 0.0 32 61
h 0.677845 0 6 tcp 1040 ------- 0 0.0 5.0 48 67
h 0.677845 0 6 tcp 1040 ------- 0 0.0 5.0 49 68
h 0.677845 0 6 tcp 1040 ------- 0 0.0 5.0 50 69
- 0.67907 4 5 tcp 1040 ------- 0 0.0 5.0 40 55
r 0.68075 4 5 tcp 1040 ------- 0 0.0 5.0 37 51
+ 0.68075 5 4 ack 40 ------- 0 5.0 0.0 34 70
- 0.68075 5 4 ack 40 ------- 0 5.0 0.0 34 70
r 0.682052 6 4 tcp 1040 ------- 0 0.0 5.0 45 62
+ 0.682052 4 5 tcp 1040 ------- 0 0.0 5.0 45 62
r 0.68275 5 4 ack 40 ------- 0 5.0 0.0 34 66
h 0.68275 4 6 ack 40 ------- 0 5.0 0.0 34 66
r 0.682905 6 4 tcp 1040 ------- 0 0.0 5.0 46 63
+ 0.682905 4 5 tcp 1040 ------- 0 0.0 5.0 46 63
r 0.683758 6 4 tcp 1040 ------- 0 0.0 5.0 47 64
+ 0.683758 4 5 tcp 1040 ------- 0 0.0 5.0 47 64
d 0.683758 4 5 tcp 1040 ------- 0 0.0 5.0 47 64
+ 0.68443 4 6 ack 40 ------- 0 5.0 0.0 34 65
- 0.68443 4 6 ack 40 ------- 0 5.0 0.0 34 65
- 0.68739 4 5 tcp 1040 ------- 0 0.0 5.0 42 58
+ 0.687845 0 6 tcp 1040 ------- 0 0.0 5.0 48 67
- 0.687845 0 6 tcp 1040 ------- 0 0.0 5.0 48 67
+ 0.687845 0 6 tcp 1040 ------- 0 0.0 5.0 49 68
+ 0.687845 0 6 tcp 1040 ------- 0 0.0 5.0 50 69
- 0.688698 0 6 tcp 1040 ------- 0 0.0 5.0 49 68
r 0.68907 4 5 tcp 1040 ------- 0 0.0 5.0 39 54
+ 0.68907 5 4 ack 40 ------- 0 5.0 0.0 34 71
- 0.68907 5 4 ack 40 ------- 0 5.0 0.0 34 71
- 0.68955 0 6 tcp 1040 ------- 0 0.0 5.0 50 69
r 0.69107 5 4 ack 40 ------- 0 5.0 0.0 34 70
h 0.69107 4 6 ack 40 ------- 0 5.0 0.0 34 70
+ 0.69275 4 6 ack 40 ------- 0 5.0 0.0 34 66
- 0.69275 4 6 ack 40 ------- 0 5.0 0.0 34 66
r 0.694485 6 0 ack 40 ------- 0 5.0 0.0 34 65
h 0.694485 0 6 tcp 1040 ------- 0 0.0 5.0 51 72
h 0.694485 0 6 tcp 1040 ------- 0 0.0 5.0 52 73
h 0.694485 0 6 tcp 1040 ------- 0 0.0 5.0 53 74
- 0.69571 4 5 tcp 1040 ------- 0 0.0 5.0 43 59
r 0.69739 4 5 tcp 1040 ------- 0 0.0 5.0 40 55
+ 0.69739 5 4 ack 40 ------- 0 5.0 0.0 34 75
- 0.69739 5 4 ack 40 ------- 0 5.0 0.0 34 75
r 0.698692 6 4 tcp 1040 ------- 0 0.0 5.0 48 67
+ 0.698692 4 5 tcp 1040 ------- 0 0.0 5.0 48 67
r 0.69939 5 4 ack 40 ------- 0 5.0 0.0 34 71
h 0.69939 4 6 ack 40 ------- 0 5.0 0.0 34 71
r 0.699545 6 4 tcp 1040 ------- 0 0.0 5.0 49 68
+ 0.699545 4 5 tcp 1040 ------- 0 0.0 5.0 49 68
r 0.700398 6 4 tcp 1040 ------- 0 0.0 5.0 50 69
+ 0.700398 4 5 tcp 1040 ------- 0 0.0 5.0 50 69
d 0.700398 4 5 tcp 1040 ------- 0 0.0 5.0 50 69
+ 0.70107 4 6 ack 40 ------- 0 5.0 0.0 34 70
- 0.70107 4 6 ack 40 ------- 0 5.0 0.0 34 70
r 0.702805 6 0 ack 40 ------- 0 5.0 0.0 34 66
h 0.702805 0 6 tcp 1040 ------- 0 0.0 5.0 54 76
- 0.70403 4 5 tcp 1040 ------- 0 0.0 5.0 45 62
+ 0.704485 0 6 tcp 1040 ------- 0 0.0 5.0 51 72
- 0.704485 0 6 tcp 1040 ------- 0 0.0 5.0 51 72
+ 0.704485 0 6 tcp 1040 ------- 0 0.0 5.0 52 73
+ 0.704485 0 6 tcp 1040 ------- 0 0.0 5.0 53 74
- 0.705338 0 6 tcp 1040 ------- 0 0.0 5.0 52 73
r 0.70571 4 5 tcp 1040 ------- 0 0.0 5.0 42 58
+ 0.70571 5 4 ack 40 ------- 0 5.0 0.0 34 77
- 0.70571 5 4 ack 40 ------- 0 5.0 0.0 34 77
- 0.70619 0 6 tcp 1040 ------- 0 0.0 5.0 53 74
r 0.70771 5 4 ack 40 ------- 0 5.0 0.0 34 75
h 0.70771 4 6 ack 40 ------- 0 5.0 0.0 34 75
+ 0.70939 4 6 ack 40 ------- 0 5.0 0.0 34 71
- 0.70939 4 6 ack 40 ------- 0 5.0 0.0 34 71
r 0.711125 6 0 ack 40 ------- 0 5.0 0.0 34 70
- 0.71235 4 5 tcp 1040 ------- 0 0.0 5.0 46 63
+ 0.712805 0 6 tcp 1040 ------- 0 0.0 5.0 54 76
- 0.712805 0 6 tcp 1040 ------- 0 0.0 5.0 54 76
r 0.71403 4 5 tcp 1040 ------- 0 0.0 5.0 43 59
+ 0.71403 5 4 ack 40 ------- 0 5.0 0.0 34 78
- 0.71403 5 4 ack 40 ------- 0 5.0 0.0 34 78
r 0.715332 6 4 tcp 1040 ------- 0 0.0 5.0 51 72
+ 0.715332 4 5 tcp 1040 ------- 0 0.0 5.0 51 72
r 0.71603 5 4 ack 40 ------- 0 5.0 0.0 34 77
h 0.71603 4 6 ack 40 ------- 0 5.0 0.0 34 77
r 0.716185 6 4 tcp 1040 ------- 0 0.0 5.0 52 73
+ 0.716185 4 5 tcp 1040 ------- 0 0.0 5.0 52 73
r 0.717038 6 4 tcp 1040 ------- 0 0.0 5.0 53 74
+ 0.717038 4 5 tcp 1040 ------- 0 0.0 5.0 53 74
d 0.717038 4 5 tcp 1040 ------- 0 0.0 5.0 53 74
+ 0.71771 4 6 ack 40 ------- 0 5.0 0.0 34 75
- 0.71771 4 6 ack 40 ------- 0 5.0 0.0 34 75
r 0.719445 6 0 ack 40 ------- 0 5.0 0.0 34 71
h 0.719445 0 6 tcp 1040 ---A--- 0 0.0 5.0 35 79
- 0.72067 4 5 tcp 1040 ------- 0 0.0 5.0 48 67
r 0.72235 4 5 tcp 1040 ------- 0 0.0 5.0 45 62
+ 0.72235 5 4 ack 40 ------- 0 5.0 0.0 34 80
- 0.72235 5 4 ack 40 ------- 0 5.0 0.0 34 80
r 0.723652 6 4 tcp 1040 ------- 0 0.0 5.0 54 76
+ 0.723652 4 5 tcp 1040 ------- 0 0.0 5.0 54 76
r 0.72435 5 4 ack 40 ------- 0 5.0 0.0 34 78
h 0.72435 4 6 ack 40 ------- 0 5.0 0.0 34 78
+ 0.72603 4 6 ack 40 ------- 0 5.0 0.0 34 77
- 0.72603 4 6 ack 40 ------- 0 5.0 0.0 34 77
r 0.727765 6 0 ack 40 ------- 0 5.0 0.0 34 75
- 0.72899 4 5 tcp 1040 ------- 0 0.0 5.0 49 68
+ 0.729445 0 6 tcp 1040 ---A--- 0 0.0 5.0 35 79
- 0.729445 0 6 tcp 1040 ---A--- 0 0.0 5.0 35 79
r 0.73067 4 5 tcp 1040 ------- 0 0.0 5.0 46 63
+ 0.73067 5 4 ack 40 ------- 0 5.0 0.0 34 81
- 0.73067 5 4 ack 40 ------- 0 5.0 0.0 34 81
r 0.73267 5 4 ack 40 ------- 0 5.0 0.0 34 80
h 0.73267 4 6 ack 40 ------- 0 5.0 0.0 34 80
+ 0.73435 4 6 ack 40 ------- 0 5.0 0.0 34 78
- 0.73435 4 6 ack 40 ------- 0 5.0 0.0 34 78
r 0.736085 6 0 ack 40 ------- 0 5.0 0.0 34 77
- 0.73731 4 5 tcp 1040 ------- 0 0.0 5.0 51 72
r 0.73899 4 5 tcp 1040 ------- 0 0.0 5.0 48 67
+ 0.73899 5 4 ack 40 ------- 0 5.0 0.0 34 82
- 0.73899 5 4 ack 40 ------- 0 5.0 0.0 34 82
r 0.740292 6 4 tcp 1040 ---A--- 0 0.0 5.0 35 79
+ 0.740292 4 5 tcp 1040 ---A--- 0 0.0 5.0 35 79
r 0.74099 5 4 ack 40 ------- 0 5.0 0.0 34 81
h 0.74099 4 6 ack 40 ------- 0 5.0 0.0 34 81
+ 0.74267 4 6 ack 40 ------- 0 5.0 0.0 34 80
- 0.74267 4 6 ack 40 ------- 0 5.0 0.0 34 80
r 0.744405 6 0 ack 40 ------- 0 5.0 0.0 34 78
- 0.74563 4 5 tcp 1040 ------- 0 0.0 5.0 52 73
r 0.74731 4 5 tcp 1040 ------- 0 0.0 5.0 49 68
+ 0.74731 5 4 ack 40 ------- 0 5.0 0.0 34 83
- 0.74731 5 4 ack 40 ------- 0 5.0 0.0 34 83
r 0.74931 5 4 ack 40 ------- 0 5.0 0.0 34 82
h 0.74931 4 6 ack 40 ------- 0 5.0 0.0 34 82
+ 0.75099 4 6 ack 40 ------- 0 5.0 0.0 34 81
- 0.75099 4 6 ack 40 ------- 0 5.0 0.0 34 81
r 0.752725 6 0 ack 40 ------- 0 5.0 0.0 34 80
- 0.75395 4 5 tcp 1040 ------- 0 0.0 5.0 54 76
r 0.75563 4 5 tcp 1040 ------- 0 0.0 5.0 51 72
+ 0.75563 5 4 ack 40 ------- 0 5.0 0.0 34 84
- 0.75563 5 4 ack 40 ------- 0 5.0 0.0 34 84
r 0.75763 5 4 ack 40 ------- 0 5.0 0.0 34 83
h 0.75763 4 6 ack 40 ------- 0 5.0 0.0 34 83
+ 0.75931 4 6 ack 40 ------- 0 5.0 0.0 34 82
- 0.75931 4 6 ack 40 ------- 0 5.0 0.0 34 82
r 0.761045 6 0 ack 40 ------- 0 5.0 0.0 34 81
- 0.76227 4 5 tcp 1040 ---A--- 0 0.0 5.0 35 79
r 0.76395 4 5 tcp 1040 ------- 0 0.0 5.0 52 73
+ 0.76395 5 4 ack 40 ------- 0 5.0 0.0 34 85
- 0.76395 5 4 ack 40 ------- 0 5.0 0.0 34 85
r 0.76595 5 4 ack 40 ------- 0 5.0 0.0 34 84
h 0.76595 4 6 ack 40 ------- 0 5.0 0.0 34 84
+ 0.76763 4 6 ack 40 ------- 0 5.0 0.0 34 83
- 0.76763 4 6 ack 40 ------- 0 5.0 0.0 34 83
r 0.769365 6 0 ack 40 ------- 0 5.0 0.0 34 82
r 0.77227 4 5 tcp 1040 ------- 0 0.0 5.0 54 76
+ 0.77227 5 4 ack 40 ------- 0 5.0 0.0 34 86
- 0.77227 5 4 ack 40 ------- 0 5.0 0.0 34 86
r 0.77427 5 4 ack 40 ------- 0 5.0 0.0 34 85
h 0.77427 4 6 ack 40 ------- 0 5.0 0.0 34 85
+ 0.77595 4 6 ack 40 ------- 0 5.0 0.0 34 84
- 0.77595 4 6 ack 40 ------- 0 5.0 0.0 34 84
r 0.777685 6 0 ack 40 ------- 0 5.0 0.0 34 83
r 0.78059 4 5 tcp 1040 ---A--- 0 0.0 5.0 35 79
+ 0.78059 5 4 ack 40 ------- 0 5.0 0.0 37 87
- 0.78059 5 4 ack 40 ------- 0 5.0 0.0 37 87
r 0.78259 5 4 ack 40 ------- 0 5.0 0.0 34 86
h 0.78259 4 6 ack 40 ------- 0 5.0 0.0 34 86
+ 0.78427 4 6 ack 40 ------- 0 5.0 0.0 34 85
- 0.78427 4 6 ack 40 ------- 0 5.0 0.0 34 85
r 0.786005 6 0 ack 40 ------- 0 5.0 0.0 34 84
r 0.79091 5 4 ack 40 ------- 0 5.0 0.0 37 87
h 0.79091 4 6 ack 40 ------- 0 5.0 0.0 37 87
+ 0.79259 4 6 ack 40 ------- 0 5.0 0.0 34 86
- 0.79259 4 6 ack 40 ------- 0 5.0 0.0 34 86
r 0.794325 6 0 ack 40 ------- 0 5.0 0.0 34 85
+ 0.80091 4 6 ack 40 ------- 0 5.0 0.0 37 87
- 0.80091 4 6 ack 40 ------- 0 5.0 0.0 37 87
r 0.802645 6 0 ack 40 ------- 0 5.0 0.0 34 86
r 0.810965 6 0 ack 40 ------- 0 5.0 0.0 37 87
h 0.810965 0 6 tcp 1040 ------- 0 0.0 5.0 38 88
h 0.810965 0 6 tcp 1040 ------- 0 0.0 5.0 55 89
h 0.810965 0 6 tcp 1040 ------- 0 0.0 5.0 56 90
+ 0.820965 0 6 tcp 1040 ------- 0 0.0 5.0 38 88
- 0.820965 0 6 tcp 1040 ------- 0 0.0 5.0 38 88
+ 0.820965 0 6 tcp 1040 ------- 0 0.0 5.0 55 89
+ 0.820965 0 6 tcp 1040 ------- 0 0.0 5.0 56 90
- 0.821818 0 6 tcp 1040 ------- 0 0.0 5.0 55 89
- 0.82267 0 6 tcp 1040 ------- 0 0.0 5.0 56 90
r 0.831812 6 4 tcp 1040 ------- 0 0.0 5.0 38 88
+ 0.831812 4 5 tcp 1040 ------- 0 0.0 5.0 38 88
- 0.831812 4 5 tcp 1040 ------- 0 0.0 5.0 38 88
r 0.832665 6 4 tcp 1040 ------- 0 0.0 5.0 55 89
+ 0.832665 4 5 tcp 1040 ------- 0 0.0 5.0 55 89
r 0.833518 6 4 tcp 1040 ------- 0 0.0 5.0 56 90
+ 0.833518 4 5 tcp 1040 ------- 0 0.0 5.0 56 90
- 0.840132 4 5 tcp 1040 ------- 0 0.0 5.0 55 89
- 0.848452 4 5 tcp 1040 ------- 0 0.0 5.0 56 90
r 0.850132 4 5 tcp 1040 ------- 0 0.0 5.0 38 88
+ 0.850132 5 4 ack 40 ------- 0 5.0 0.0 40 91
- 0.850132 5 4 ack 40 ------- 0 5.0 0.0 40 91
r 0.858452 4 5 tcp 1040 ------- 0 0.0 5.0 55 89
+ 0.858452 5 4 ack 40 ------- 0 5.0 0.0 40 92
- 0.858452 5 4 ack 40 ------- 0 5.0 0.0 40 92
r 0.860452 5 4 ack 40 ------- 0 5.0 0.0 40 91
h 0.860452 4 6 ack 40 ------- 0 5.0 0.0 40 91
r 0.866772 4 5 tcp 1040 ------- 0 0.0 5.0 56 90
+ 0.866772 5 4 ack 40 ------- 0 5.0 0.0 40 93
- 0.866772 5 4 ack 40 ------- 0 5.0 0.0 40 93
r 0.868772 5 4 ack 40 ------- 0 5.0 0.0 40 92
h 0.868772 4 6 ack 40 ------- 0 5.0 0.0 40 92
+ 0.870452 4 6 ack 40 ------- 0 5.0 0.0 40 91
- 0.870452 4 6 ack 40 ------- 0 5.0 0.0 40 91
r 0.877092 5 4 ack 40 ------- 0 5.0 0.0 40 93
h 0.877092 4 6 ack 40 ------- 0 5.0 0.0 40 93