+ 0 0 1 tcp 40 ------- 0 0.0 4.0 0 0
- 0 0 1 tcp 40 ------- 0 0.0 4.0 0 0
r 0.050107 0 1 tcp 40 ------- 0 0.0 4.0 0 0
+ 0.050107 1 2 tcp 40 ------- 0 0.0 4.0 0 0
- 0.050107 1 2 tcp 40 ------- 0 0.0 4.0 0 0
r 0.208528 1 2 tcp 40 ------- 0 0.0 4.0 0 0
+ 0.208528 2 3 tcp 40 ------- 0 0.0 4.0 0 0
- 0.208528 2 3 tcp 40 ------- 0 0.0 4.0 0 0
r 0.363528 2 3 tcp 40 ------- 0 0.0 4.0 0 0
+ 0.363528 3 4 tcp 40 ------- 0 0.0 4.0 0 0
- 0.363528 3 4 tcp 40 ------- 0 0.0 4.0 0 0
r 0.373634 3 4 tcp 40 ------- 0 0.0 4.0 0 0
+ 0.373634 4 3 ack 40 ------- 0 4.0 0.0 0 1
- 0.373634 4 3 ack 40 ------- 0 4.0 0.0 0 1
r 0.383741 4 3 ack 40 ------- 0 4.0 0.0 0 1
+ 0.383741 3 2 ack 40 ------- 0 4.0 0.0 0 1
- 0.383741 3 2 ack 40 ------- 0 4.0 0.0 0 1
r 0.538741 3 2 ack 40 ------- 0 4.0 0.0 0 1
+ 0.538741 2 1 ack 40 ------- 0 4.0 0.0 0 1
- 0.538741 2 1 ack 40 ------- 0 4.0 0.0 0 1
r 0.697162 2 1 ack 40 ------- 0 4.0 0.0 0 1
+ 0.697162 1 0 ack 40 ------- 0 4.0 0.0 0 1
- 0.697162 1 0 ack 40 ------- 0 4.0 0.0 0 1
r 0.747269 1 0 ack 40 ------- 0 4.0 0.0 0 1
+ 0.747269 0 1 tcp 1040 ------- 0 0.0 4.0 1 2
- 0.747269 0 1 tcp 1040 ------- 0 0.0 4.0 1 2
+ 0.747269 0 1 tcp 1040 ------- 0 0.0 4.0 2 3
- 0.750042 0 1 tcp 1040 ------- 0 0.0 4.0 2 3
r 0.800042 0 1 tcp 1040 ------- 0 0.0 4.0 1 2
+ 0.800042 1 2 tcp 1040 ------- 0 0.0 4.0 1 2
- 0.800042 1 2 tcp 1040 ------- 0 0.0 4.0 1 2
r 0.802815 0 1 tcp 1040 ------- 0 0.0 4.0 2 3
+ 0.802815 1 2 tcp 1040 ------- 0 0.0 4.0 2 3
- 1.018989 1 2 tcp 1040 ------- 0 0.0 4.0 2 3
r 1.168989 1 2 tcp 1040 ------- 0 0.0 4.0 1 2
+ 1.168989 2 3 tcp 1040 ------- 0 0.0 4.0 1 2
- 1.168989 2 3 tcp 1040 ------- 0 0.0 4.0 1 2
r 1.387937 1 2 tcp 1040 ------- 0 0.0 4.0 2 3
+ 1.387937 2 3 tcp 1040 ------- 0 0.0 4.0 2 3
- 1.387937 2 3 tcp 1040 ------- 0 0.0 4.0 2 3
r 1.448989 2 3 tcp 1040 ------- 0 0.0 4.0 1 2
+ 1.448989 3 4 tcp 1040 ------- 0 0.0 4.0 1 2
- 1.448989 3 4 tcp 1040 ------- 0 0.0 4.0 1 2
r 1.461763 3 4 tcp 1040 ------- 0 0.0 4.0 1 2
+ 1.461763 4 3 ack 40 ------- 0 4.0 0.0 1 4
- 1.461763 4 3 ack 40 ------- 0 4.0 0.0 1 4
r 1.471869 4 3 ack 40 ------- 0 4.0 0.0 1 4
+ 1.471869 3 2 ack 40 ------- 0 4.0 0.0 1 4
- 1.471869 3 2 ack 40 ------- 0 4.0 0.0 1 4
r 1.626869 3 2 ack 40 ------- 0 4.0 0.0 1 4
+ 1.626869 2 1 ack 40 ------- 0 4.0 0.0 1 4
- 1.626869 2 1 ack 40 ------- 0 4.0 0.0 1 4
r 1.667937 2 3 tcp 1040 ------- 0 0.0 4.0 2 3
+ 1.667937 3 4 tcp 1040 ------- 0 0.0 4.0 2 3
- 1.667937 3 4 tcp 1040 ------- 0 0.0 4.0 2 3
r 1.68071 3 4 tcp 1040 ------- 0 0.0 4.0 2 3
+ 1.68071 4 3 ack 40 ------- 0 4.0 0.0 2 5
- 1.68071 4 3 ack 40 ------- 0 4.0 0.0 2 5
r 1.690817 4 3 ack 40 ------- 0 4.0 0.0 2 5
+ 1.690817 3 2 ack 40 ------- 0 4.0 0.0 2 5
- 1.690817 3 2 ack 40 ------- 0 4.0 0.0 2 5
r 1.785291 2 1 ack 40 ------- 0 4.0 0.0 1 4
+ 1.785291 1 0 ack 40 ------- 0 4.0 0.0 1 4
- 1.785291 1 0 ack 40 ------- 0 4.0 0.0 1 4
r 1.835397 1 0 ack 40 ------- 0 4.0 0.0 1 4
+ 1.835397 0 1 tcp 1040 ------- 0 0.0 4.0 3 6
- 1.835397 0 1 tcp 1040 ------- 0 0.0 4.0 3 6
+ 1.835397 0 1 tcp 1040 ------- 0 0.0 4.0 4 7
- 1.838171 0 1 tcp 1040 ------- 0 0.0 4.0 4 7
r 1.845817 3 2 ack 40 ------- 0 4.0 0.0 2 5
+ 1.845817 2 1 ack 40 ------- 0 4.0 0.0 2 5
- 1.845817 2 1 ack 40 ------- 0 4.0 0.0 2 5
r 1.888171 0 1 tcp 1040 ------- 0 0.0 4.0 3 6
+ 1.888171 1 2 tcp 1040 ------- 0 0.0 4.0 3 6
- 1.888171 1 2 tcp 1040 ------- 0 0.0 4.0 3 6
r 1.890944 0 1 tcp 1040 ------- 0 0.0 4.0 4 7
+ 1.890944 1 2 tcp 1040 ------- 0 0.0 4.0 4 7
r 2.004238 2 1 ack 40 ------- 0 4.0 0.0 2 5
+ 2.004238 1 0 ack 40 ------- 0 4.0 0.0 2 5
- 2.004238 1 0 ack 40 ------- 0 4.0 0.0 2 5
r 2.054345 1 0 ack 40 ------- 0 4.0 0.0 2 5
+ 2.054345 0 1 tcp 1040 ------- 0 0.0 4.0 5 8
- 2.054345 0 1 tcp 1040 ------- 0 0.0 4.0 5 8
+ 2.054345 0 1 tcp 1040 ------- 0 0.0 4.0 6 9
- 2.057118 0 1 tcp 1040 ------- 0 0.0 4.0 6 9
- 2.107118 1 2 tcp 1040 ------- 0 0.0 4.0 4 7
r 2.107118 0 1 tcp 1040 ------- 0 0.0 4.0 5 8
+ 2.107118 1 2 tcp 1040 ------- 0 0.0 4.0 5 8
r 2.109891 0 1 tcp 1040 ------- 0 0.0 4.0 6 9
+ 2.109891 1 2 tcp 1040 ------- 0 0.0 4.0 6 9
r 2.257118 1 2 tcp 1040 ------- 0 0.0 4.0 3 6
+ 2.257118 2 3 tcp 1040 ------- 0 0.0 4.0 3 6
- 2.257118 2 3 tcp 1040 ------- 0 0.0 4.0 3 6
- 2.326065 1 2 tcp 1040 ------- 0 0.0 4.0 5 8
r 2.476065 1 2 tcp 1040 ------- 0 0.0 4.0 4 7
+ 2.476065 2 3 tcp 1040 ------- 0 0.0 4.0 4 7
- 2.476065 2 3 tcp 1040 ------- 0 0.0 4.0 4 7
r 2.537118 2 3 tcp 1040 ------- 0 0.0 4.0 3 6
+ 2.537118 3 4 tcp 1040 ------- 0 0.0 4.0 3 6
- 2.537118 3 4 tcp 1040 ------- 0 0.0 4.0 3 6
- 2.545013 1 2 tcp 1040 ------- 0 0.0 4.0 6 9
r 2.549891 3 4 tcp 1040 ------- 0 0.0 4.0 3 6
+ 2.549891 4 3 ack 40 ------- 0 4.0 0.0 3 10
- 2.549891 4 3 ack 40 ------- 0 4.0 0.0 3 10
r 2.559998 4 3 ack 40 ------- 0 4.0 0.0 3 10
+ 2.559998 3 2 ack 40 ------- 0 4.0 0.0 3 10
- 2.559998 3 2 ack 40 ------- 0 4.0 0.0 3 10
r 2.695013 1 2 tcp 1040 ------- 0 0.0 4.0 5 8
+ 2.695013 2 3 tcp 1040 ------- 0 0.0 4.0 5 8
- 2.695013 2 3 tcp 1040 ------- 0 0.0 4.0 5 8
r 2.714998 3 2 ack 40 ------- 0 4.0 0.0 3 10
+ 2.714998 2 1 ack 40 ------- 0 4.0 0.0 3 10
- 2.714998 2 1 ack 40 ------- 0 4.0 0.0 3 10
r 2.756065 2 3 tcp 1040 ------- 0 0.0 4.0 4 7
+ 2.756065 3 4 tcp 1040 ------- 0 0.0 4.0 4 7
- 2.756065 3 4 tcp 1040 ------- 0 0.0 4.0 4 7
r 2.768839 3 4 tcp 1040 ------- 0 0.0 4.0 4 7
+ 2.768839 4 3 ack 40 ------- 0 4.0 0.0 4 11
- 2.768839 4 3 ack 40 ------- 0 4.0 0.0 4 11
r 2.778945 4 3 ack 40 ------- 0 4.0 0.0 4 11
+ 2.778945 3 2 ack 40 ------- 0 4.0 0.0 4 11
- 2.778945 3 2 ack 40 ------- 0 4.0 0.0 4 11
r 2.873419 2 1 ack 40 ------- 0 4.0 0.0 3 10
+ 2.873419 1 0 ack 40 ------- 0 4.0 0.0 3 10
- 2.873419 1 0 ack 40 ------- 0 4.0 0.0 3 10
r 2.91396 1 2 tcp 1040 ------- 0 0.0 4.0 6 9
+ 2.91396 2 3 tcp 1040 ------- 0 0.0 4.0 6 9
- 2.91396 2 3 tcp 1040 ------- 0 0.0 4.0 6 9
r 2.923526 1 0 ack 40 ------- 0 4.0 0.0 3 10
+ 2.923526 0 1 tcp 1040 ------- 0 0.0 4.0 7 12
- 2.923526 0 1 tcp 1040 ------- 0 0.0 4.0 7 12
+ 2.923526 0 1 tcp 1040 ------- 0 0.0 4.0 8 13
- 2.926299 0 1 tcp 1040 ------- 0 0.0 4.0 8 13
r 2.933945 3 2 ack 40 ------- 0 4.0 0.0 4 11
+ 2.933945 2 1 ack 40 ------- 0 4.0 0.0 4 11
- 2.933945 2 1 ack 40 ------- 0 4.0 0.0 4 11
r 2.975013 2 3 tcp 1040 ------- 0 0.0 4.0 5 8
+ 2.975013 3 4 tcp 1040 ------- 0 0.0 4.0 5 8
- 2.975013 3 4 tcp 1040 ------- 0 0.0 4.0 5 8
r 2.976299 0 1 tcp 1040 ------- 0 0.0 4.0 7 12
+ 2.976299 1 2 tcp 1040 ------- 0 0.0 4.0 7 12
- 2.976299 1 2 tcp 1040 ------- 0 0.0 4.0 7 12
r 2.979072 0 1 tcp 1040 ------- 0 0.0 4.0 8 13
+ 2.979072 1 2 tcp 1040 ------- 0 0.0 4.0 8 13
r 2.987786 3 4 tcp 1040 ------- 0 0.0 4.0 5 8
+ 2.987786 4 3 ack 40 ------- 0 4.0 0.0 5 14
- 2.987786 4 3 ack 40 ------- 0 4.0 0.0 5 14
r 2.997893 4 3 ack 40 ------- 0 4.0 0.0 5 14
+ 2.997893 3 2 ack 40 ------- 0 4.0 0.0 5 14
- 2.997893 3 2 ack 40 ------- 0 4.0 0.0 5 14
r 3.092366 2 1 ack 40 ------- 0 4.0 0.0 4 11
+ 3.092366 1 0 ack 40 ------- 0 4.0 0.0 4 11
- 3.092366 1 0 ack 40 ------- 0 4.0 0.0 4 11
r 3.142473 1 0 ack 40 ------- 0 4.0 0.0 4 11
+ 3.142473 0 1 tcp 1040 ------- 0 0.0 4.0 9 15
- 3.142473 0 1 tcp 1040 ------- 0 0.0 4.0 9 15
+ 3.142473 0 1 tcp 1040 ------- 0 0.0 4.0 10 16
- 3.145246 0 1 tcp 1040 ------- 0 0.0 4.0 10 16
r 3.152893 3 2 ack 40 ------- 0 4.0 0.0 5 14
+ 3.152893 2 1 ack 40 ------- 0 4.0 0.0 5 14
- 3.152893 2 1 ack 40 ------- 0 4.0 0.0 5 14
r 3.19396 2 3 tcp 1040 ------- 0 0.0 4.0 6 9
+ 3.19396 3 4 tcp 1040 ------- 0 0.0 4.0 6 9
- 3.19396 3 4 tcp 1040 ------- 0 0.0 4.0 6 9
- 3.195246 1 2 tcp 1040 ------- 0 0.0 4.0 8 13
r 3.195246 0 1 tcp 1040 ------- 0 0.0 4.0 9 15
+ 3.195246 1 2 tcp 1040 ------- 0 0.0 4.0 9 15
r 3.19802 0 1 tcp 1040 ------- 0 0.0 4.0 10 16
+ 3.19802 1 2 tcp 1040 ------- 0 0.0 4.0 10 16
r 3.206733 3 4 tcp 1040 ------- 0 0.0 4.0 6 9
+ 3.206733 4 3 ack 40 ------- 0 4.0 0.0 6 17
- 3.206733 4 3 ack 40 ------- 0 4.0 0.0 6 17
r 3.21684 4 3 ack 40 ------- 0 4.0 0.0 6 17
+ 3.21684 3 2 ack 40 ------- 0 4.0 0.0 6 17
- 3.21684 3 2 ack 40 ------- 0 4.0 0.0 6 17
r 3.311314 2 1 ack 40 ------- 0 4.0 0.0 5 14
+ 3.311314 1 0 ack 40 ------- 0 4.0 0.0 5 14
- 3.311314 1 0 ack 40 ------- 0 4.0 0.0 5 14
r 3.345246 1 2 tcp 1040 ------- 0 0.0 4.0 7 12
+ 3.345246 2 3 tcp 1040 ------- 0 0.0 4.0 7 12
- 3.345246 2 3 tcp 1040 ------- 0 0.0 4.0 7 12
r 3.36142 1 0 ack 40 ------- 0 4.0 0.0 5 14
+ 3.36142 0 1 tcp 1040 ------- 0 0.0 4.0 11 18
- 3.36142 0 1 tcp 1040 ------- 0 0.0 4.0 11 18
+ 3.36142 0 1 tcp 1040 ------- 0 0.0 4.0 12 19
- 3.364194 0 1 tcp 1040 ------- 0 0.0 4.0 12 19
r 3.37184 3 2 ack 40 ------- 0 4.0 0.0 6 17
+ 3.37184 2 1 ack 40 ------- 0 4.0 0.0 6 17
- 3.37184 2 1 ack 40 ------- 0 4.0 0.0 6 17
- 3.414194 1 2 tcp 1040 ------- 0 0.0 4.0 9 15
r 3.414194 0 1 tcp 1040 ------- 0 0.0 4.0 11 18
+ 3.414194 1 2 tcp 1040 ------- 0 0.0 4.0 11 18
r 3.416967 0 1 tcp 1040 ------- 0 0.0 4.0 12 19
+ 3.416967 1 2 tcp 1040 ------- 0 0.0 4.0 12 19
r 3.530261 2 1 ack 40 ------- 0 4.0 0.0 6 17
+ 3.530261 1 0 ack 40 ------- 0 4.0 0.0 6 17
- 3.530261 1 0 ack 40 ------- 0 4.0 0.0 6 17
r 3.564194 1 2 tcp 1040 ------- 0 0.0 4.0 8 13
+ 3.564194 2 3 tcp 1040 ------- 0 0.0 4.0 8 13
- 3.564194 2 3 tcp 1040 ------- 0 0.0 4.0 8 13
r 3.580368 1 0 ack 40 ------- 0 4.0 0.0 6 17
+ 3.580368 0 1 tcp 1040 ------- 0 0.0 4.0 13 20
- 3.580368 0 1 tcp 1040 ------- 0 0.0 4.0 13 20
+ 3.580368 0 1 tcp 1040 ------- 0 0.0 4.0 14 21
- 3.583141 0 1 tcp 1040 ------- 0 0.0 4.0 14 21
r 3.625246 2 3 tcp 1040 ------- 0 0.0 4.0 7 12
+ 3.625246 3 4 tcp 1040 ------- 0 0.0 4.0 7 12
- 3.625246 3 4 tcp 1040 ------- 0 0.0 4.0 7 12
- 3.633141 1 2 tcp 1040 ------- 0 0.0 4.0 10 16
r 3.633141 0 1 tcp 1040 ------- 0 0.0 4.0 13 20
+ 3.633141 1 2 tcp 1040 ------- 0 0.0 4.0 13 20
r 3.635914 0 1 tcp 1040 ------- 0 0.0 4.0 14 21
+ 3.635914 1 2 tcp 1040 ------- 0 0.0 4.0 14 21
r 3.63802 3 4 tcp 1040 ------- 0 0.0 4.0 7 12
+ 3.63802 4 3 ack 40 ------- 0 4.0 0.0 7 22
- 3.63802 4 3 ack 40 ------- 0 4.0 0.0 7 22
r 3.648126 4 3 ack 40 ------- 0 4.0 0.0 7 22
+ 3.648126 3 2 ack 40 ------- 0 4.0 0.0 7 22
- 3.648126 3 2 ack 40 ------- 0 4.0 0.0 7 22
r 3.783141 1 2 tcp 1040 ------- 0 0.0 4.0 9 15
+ 3.783141 2 3 tcp 1040 ------- 0 0.0 4.0 9 15
- 3.783141 2 3 tcp 1040 ------- 0 0.0 4.0 9 15
r 3.803126 3 2 ack 40 ------- 0 4.0 0.0 7 22
+ 3.803126 2 1 ack 40 ------- 0 4.0 0.0 7 22
- 3.803126 2 1 ack 40 ------- 0 4.0 0.0 7 22
r 3.844194 2 3 tcp 1040 ------- 0 0.0 4.0 8 13
+ 3.844194 3 4 tcp 1040 ------- 0 0.0 4.0 8 13
- 3.844194 3 4 tcp 1040 ------- 0 0.0 4.0 8 13
- 3.852088 1 2 tcp 1040 ------- 0 0.0 4.0 11 18
r 3.856967 3 4 tcp 1040 ------- 0 0.0 4.0 8 13
+ 3.856967 4 3 ack 40 ------- 0 4.0 0.0 8 23
- 3.856967 4 3 ack 40 ------- 0 4.0 0.0 8 23
r 3.867074 4 3 ack 40 ------- 0 4.0 0.0 8 23
+ 3.867074 3 2 ack 40 ------- 0 4.0 0.0 8 23
- 3.867074 3 2 ack 40 ------- 0 4.0 0.0 8 23
r 3.961547 2 1 ack 40 ------- 0 4.0 0.0 7 22
+ 3.961547 1 0 ack 40 ------- 0 4.0 0.0 7 22
- 3.961547 1 0 ack 40 ------- 0 4.0 0.0 7 22
r 4.002088 1 2 tcp 1040 ------- 0 0.0 4.0 10 16
+ 4.002088 2 3 tcp 1040 ------- 0 0.0 4.0 10 16
- 4.002088 2 3 tcp 1040 ------- 0 0.0 4.0 10 16
r 4.011654 1 0 ack 40 ------- 0 4.0 0.0 7 22
+ 4.011654 0 1 tcp 1040 ------- 0 0.0 4.0 15 24
- 4.011654 0 1 tcp 1040 ------- 0 0.0 4.0 15 24
+ 4.011654 0 1 tcp 1040 ------- 0 0.0 4.0 16 25
- 4.014427 0 1 tcp 1040 ------- 0 0.0 4.0 16 25
r 4.022074 3 2 ack 40 ------- 0 4.0 0.0 8 23
+ 4.022074 2 1 ack 40 ------- 0 4.0 0.0 8 23
- 4.022074 2 1 ack 40 ------- 0 4.0 0.0 8 23
r 4.063141 2 3 tcp 1040 ------- 0 0.0 4.0 9 15
+ 4.063141 3 4 tcp 1040 ------- 0 0.0 4.0 9 15
- 4.063141 3 4 tcp 1040 ------- 0 0.0 4.0 9 15
r 4.064427 0 1 tcp 1040 ------- 0 0.0 4.0 15 24
+ 4.064427 1 2 tcp 1040 ------- 0 0.0 4.0 15 24
r 4.067201 0 1 tcp 1040 ------- 0 0.0 4.0 16 25
+ 4.067201 1 2 tcp 1040 ------- 0 0.0 4.0 16 25
- 4.071036 1 2 tcp 1040 ------- 0 0.0 4.0 12 19
r 4.075914 3 4 tcp 1040 ------- 0 0.0 4.0 9 15
+ 4.075914 4 3 ack 40 ------- 0 4.0 0.0 9 26
- 4.075914 4 3 ack 40 ------- 0 4.0 0.0 9 26
r 4.086021 4 3 ack 40 ------- 0 4.0 0.0 9 26
+ 4.086021 3 2 ack 40 ------- 0 4.0 0.0 9 26
- 4.086021 3 2 ack 40 ------- 0 4.0 0.0 9 26
r 4.180495 2 1 ack 40 ------- 0 4.0 0.0 8 23
+ 4.180495 1 0 ack 40 ------- 0 4.0 0.0 8 23
- 4.180495 1 0 ack 40 ------- 0 4.0 0.0 8 23
r 4.221036 1 2 tcp 1040 ------- 0 0.0 4.0 11 18
+ 4.221036 2 3 tcp 1040 ------- 0 0.0 4.0 11 18
- 4.221036 2 3 tcp 1040 ------- 0 0.0 4.0 11 18
r 4.230601 1 0 ack 40 ------- 0 4.0 0.0 8 23
+ 4.230601 0 1 tcp 1040 ------- 0 0.0 4.0 17 27
- 4.230601 0 1 tcp 1040 ------- 0 0.0 4.0 17 27
+ 4.230601 0 1 tcp 1040 ------- 0 0.0 4.0 18 28
- 4.233375 0 1 tcp 1040 ------- 0 0.0 4.0 18 28
r 4.241021 3 2 ack 40 ------- 0 4.0 0.0 9 26
+ 4.241021 2 1 ack 40 ------- 0 4.0 0.0 9 26
- 4.241021 2 1 ack 40 ------- 0 4.0 0.0 9 26
r 4.282088 2 3 tcp 1040 ------- 0 0.0 4.0 10 16
+ 4.282088 3 4 tcp 1040 ------- 0 0.0 4.0 10 16
- 4.282088 3 4 tcp 1040 ------- 0 0.0 4.0 10 16
r 4.283375 0 1 tcp 1040 ------- 0 0.0 4.0 17 27
+ 4.283375 1 2 tcp 1040 ------- 0 0.0 4.0 17 27
r 4.286148 0 1 tcp 1040 ------- 0 0.0 4.0 18 28
+ 4.286148 1 2 tcp 1040 ------- 0 0.0 4.0 18 28
- 4.289983 1 2 tcp 1040 ------- 0 0.0 4.0 13 20
r 4.294862 3 4 tcp 1040 ------- 0 0.0 4.0 10 16
+ 4.294862 4 3 ack 40 ------- 0 4.0 0.0 10 29
- 4.294862 4 3 ack 40 ------- 0 4.0 0.0 10 29
r 4.304968 4 3 ack 40 ------- 0 4.0 0.0 10 29
+ 4.304968 3 2 ack 40 ------- 0 4.0 0.0 10 29
- 4.304968 3 2 ack 40 ------- 0 4.0 0.0 10 29
r 4.399442 2 1 ack 40 ------- 0 4.0 0.0 9 26
+ 4.399442 1 0 ack 40 ------- 0 4.0 0.0 9 26
- 4.399442 1 0 ack 40 ------- 0 4.0 0.0 9 26
r 4.439983 1 2 tcp 1040 ------- 0 0.0 4.0 12 19
+ 4.439983 2 3 tcp 1040 ------- 0 0.0 4.0 12 19
- 4.439983 2 3 tcp 1040 ------- 0 0.0 4.0 12 19
r 4.449549 1 0 ack 40 ------- 0 4.0 0.0 9 26
+ 4.449549 0 1 tcp 1040 ------- 0 0.0 4.0 19 30
- 4.449549 0 1 tcp 1040 ------- 0 0.0 4.0 19 30
+ 4.449549 0 1 tcp 1040 ------- 0 0.0 4.0 20 31
- 4.452322 0 1 tcp 1040 ------- 0 0.0 4.0 20 31
r 4.459968 3 2 ack 40 ------- 0 4.0 0.0 10 29
+ 4.459968 2 1 ack 40 ------- 0 4.0 0.0 10 29
- 4.459968 2 1 ack 40 ------- 0 4.0 0.0 10 29
r 4.501036 2 3 tcp 1040 ------- 0 0.0 4.0 11 18
+ 4.501036 3 4 tcp 1040 ------- 0 0.0 4.0 11 18
- 4.501036 3 4 tcp 1040 ------- 0 0.0 4.0 11 18
r 4.502322 0 1 tcp 1040 ------- 0 0.0 4.0 19 30
+ 4.502322 1 2 tcp 1040 ------- 0 0.0 4.0 19 30
r 4.505095 0 1 tcp 1040 ------- 0 0.0 4.0 20 31
+ 4.505095 1 2 tcp 1040 ------- 0 0.0 4.0 20 31
- 4.508931 1 2 tcp 1040 ------- 0 0.0 4.0 14 21
r 4.513809 3 4 tcp 1040 ------- 0 0.0 4.0 11 18
+ 4.513809 4 3 ack 40 ------- 0 4.0 0.0 11 32
- 4.513809 4 3 ack 40 ------- 0 4.0 0.0 11 32
r 4.523916 4 3 ack 40 ------- 0 4.0 0.0 11 32
+ 4.523916 3 2 ack 40 ------- 0 4.0 0.0 11 32
- 4.523916 3 2 ack 40 ------- 0 4.0 0.0 11 32
r 4.618389 2 1 ack 40 ------- 0 4.0 0.0 10 29
+ 4.618389 1 0 ack 40 ------- 0 4.0 0.0 10 29
- 4.618389 1 0 ack 40 ------- 0 4.0 0.0 10 29
r 4.658931 1 2 tcp 1040 ------- 0 0.0 4.0 13 20
+ 4.658931 2 3 tcp 1040 ------- 0 0.0 4.0 13 20
- 4.658931 2 3 tcp 1040 ------- 0 0.0 4.0 13 20
r 4.668496 1 0 ack 40 ------- 0 4.0 0.0 10 29
+ 4.668496 0 1 tcp 1040 ------- 0 0.0 4.0 21 33
- 4.668496 0 1 tcp 1040 ------- 0 0.0 4.0 21 33
+ 4.668496 0 1 tcp 1040 ------- 0 0.0 4.0 22 34
- 4.671269 0 1 tcp 1040 ------- 0 0.0 4.0 22 34
r 4.678916 3 2 ack 40 ------- 0 4.0 0.0 11 32
+ 4.678916 2 1 ack 40 ------- 0 4.0 0.0 11 32
- 4.678916 2 1 ack 40 ------- 0 4.0 0.0 11 32
r 4.719983 2 3 tcp 1040 ------- 0 0.0 4.0 12 19
+ 4.719983 3 4 tcp 1040 ------- 0 0.0 4.0 12 19
- 4.719983 3 4 tcp 1040 ------- 0 0.0 4.0 12 19
r 4.721269 0 1 tcp 1040 ------- 0 0.0 4.0 21 33
+ 4.721269 1 2 tcp 1040 ------- 0 0.0 4.0 21 33
r 4.724043 0 1 tcp 1040 ------- 0 0.0 4.0 22 34
+ 4.724043 1 2 tcp 1040 ------- 0 0.0 4.0 22 34
- 4.727878 1 2 tcp 1040 ------- 0 0.0 4.0 15 24
r 4.732756 3 4 tcp 1040 ------- 0 0.0 4.0 12 19
+ 4.732756 4 3 ack 40 ------- 0 4.0 0.0 12 35
- 4.732756 4 3 ack 40 ------- 0 4.0 0.0 12 35
r 4.742863 4 3 ack 40 ------- 0 4.0 0.0 12 35
+ 4.742863 3 2 ack 40 ------- 0 4.0 0.0 12 35
- 4.742863 3 2 ack 40 ------- 0 4.0 0.0 12 35
r 4.837337 2 1 ack 40 ------- 0 4.0 0.0 11 32
+ 4.837337 1 0 ack 40 ------- 0 4.0 0.0 11 32
- 4.837337 1 0 ack 40 ------- 0 4.0 0.0 11 32
r 4.877878 1 2 tcp 1040 ------- 0 0.0 4.0 14 21
+ 4.877878 2 3 tcp 1040 ------- 0 0.0 4.0 14 21
- 4.877878 2 3 tcp 1040 ------- 0 0.0 4.0 14 21
r 4.887444 1 0 ack 40 ------- 0 4.0 0.0 11 32
+ 4.887444 0 1 tcp 1040 ------- 0 0.0 4.0 23 36
- 4.887444 0 1 tcp 1040 ------- 0 0.0 4.0 23 36
+ 4.887444 0 1 tcp 1040 ------- 0 0.0 4.0 24 37
- 4.890217 0 1 tcp 1040 ------- 0 0.0 4.0 24 37
r 4.897863 3 2 ack 40 ------- 0 4.0 0.0 12 35
+ 4.897863 2 1 ack 40 ------- 0 4.0 0.0 12 35
- 4.897863 2 1 ack 40 ------- 0 4.0 0.0 12 35
r 4.938931 2 3 tcp 1040 ------- 0 0.0 4.0 13 20
+ 4.938931 3 4 tcp 1040 ------- 0 0.0 4.0 13 20
- 4.938931 3 4 tcp 1040 ------- 0 0.0 4.0 13 20
r 4.940217 0 1 tcp 1040 ------- 0 0.0 4.0 23 36
+ 4.940217 1 2 tcp 1040 ------- 0 0.0 4.0 23 36
r 4.94299 0 1 tcp 1040 ------- 0 0.0 4.0 24 37
+ 4.94299 1 2 tcp 1040 ------- 0 0.0 4.0 24 37
- 4.946825 1 2 tcp 1040 ------- 0 0.0 4.0 16 25
r 4.951704 3 4 tcp 1040 ------- 0 0.0 4.0 13 20
+ 4.951704 4 3 ack 40 ------- 0 4.0 0.0 13 38
- 4.951704 4 3 ack 40 ------- 0 4.0 0.0 13 38
r 4.961811 4 3 ack 40 ------- 0 4.0 0.0 13 38
+ 4.961811 3 2 ack 40 ------- 0 4.0 0.0 13 38
- 4.961811 3 2 ack 40 ------- 0 4.0 0.0 13 38
r 5.056284 2 1 ack 40 ------- 0 4.0 0.0 12 35
+ 5.056284 1 0 ack 40 ------- 0 4.0 0.0 12 35
- 5.056284 1 0 ack 40 ------- 0 4.0 0.0 12 35
r 5.096825 1 2 tcp 1040 ------- 0 0.0 4.0 15 24
+ 5.096825 2 3 tcp 1040 ------- 0 0.0 4.0 15 24
- 5.096825 2 3 tcp 1040 ------- 0 0.0 4.0 15 24
r 5.106391 1 0 ack 40 ------- 0 4.0 0.0 12 35
+ 5.106391 0 1 tcp 1040 ------- 0 0.0 4.0 25 39
- 5.106391 0 1 tcp 1040 ------- 0 0.0 4.0 25 39
+ 5.106391 0 1 tcp 1040 ------- 0 0.0 4.0 26 40
- 5.109164 0 1 tcp 1040 ------- 0 0.0 4.0 26 40
r 5.116811 3 2 ack 40 ------- 0 4.0 0.0 13 38
+ 5.116811 2 1 ack 40 ------- 0 4.0 0.0 13 38
- 5.116811 2 1 ack 40 ------- 0 4.0 0.0 13 38
r 5.157878 2 3 tcp 1040 ------- 0 0.0 4.0 14 21
+ 5.157878 3 4 tcp 1040 ------- 0 0.0 4.0 14 21
- 5.157878 3 4 tcp 1040 ------- 0 0.0 4.0 14 21
r 5.159164 0 1 tcp 1040 ------- 0 0.0 4.0 25 39
+ 5.159164 1 2 tcp 1040 ------- 0 0.0 4.0 25 39
r 5.161938 0 1 tcp 1040 ------- 0 0.0 4.0 26 40
+ 5.161938 1 2 tcp 1040 ------- 0 0.0 4.0 26 40
- 5.165773 1 2 tcp 1040 ------- 0 0.0 4.0 17 27
r 5.170651 3 4 tcp 1040 ------- 0 0.0 4.0 14 21
+ 5.170651 4 3 ack 40 ------- 0 4.0 0.0 14 41
- 5.170651 4 3 ack 40 ------- 0 4.0 0.0 14 41
r 5.180758 4 3 ack 40 ------- 0 4.0 0.0 14 41
+ 5.180758 3 2 ack 40 ------- 0 4.0 0.0 14 41
- 5.180758 3 2 ack 40 ------- 0 4.0 0.0 14 41
r 5.275232 2 1 ack 40 ------- 0 4.0 0.0 13 38
+ 5.275232 1 0 ack 40 ------- 0 4.0 0.0 13 38
- 5.275232 1 0 ack 40 ------- 0 4.0 0.0 13 38
r 5.315773 1 2 tcp 1040 ------- 0 0.0 4.0 16 25
+ 5.315773 2 3 tcp 1040 ------- 0 0.0 4.0 16 25
- 5.315773 2 3 tcp 1040 ------- 0 0.0 4.0 16 25
r 5.325338 1 0 ack 40 ------- 0 4.0 0.0 13 38
+ 5.325338 0 1 tcp 1040 ------- 0 0.0 4.0 27 42
- 5.325338 0 1 tcp 1040 ------- 0 0.0 4.0 27 42
+ 5.325338 0 1 tcp 1040 ------- 0 0.0 4.0 28 43
- 5.328112 0 1 tcp 1040 ------- 0 0.0 4.0 28 43
r 5.335758 3 2 ack 40 ------- 0 4.0 0.0 14 41
+ 5.335758 2 1 ack 40 ------- 0 4.0 0.0 14 41
- 5.335758 2 1 ack 40 ------- 0 4.0 0.0 14 41
r 5.376825 2 3 tcp 1040 ------- 0 0.0 4.0 15 24
+ 5.376825 3 4 tcp 1040 ------- 0 0.0 4.0 15 24
- 5.376825 3 4 tcp 1040 ------- 0 0.0 4.0 15 24
r 5.378112 0 1 tcp 1040 ------- 0 0.0 4.0 27 42
+ 5.378112 1 2 tcp 1040 ------- 0 0.0 4.0 27 42
r 5.380885 0 1 tcp 1040 ------- 0 0.0 4.0 28 43
+ 5.380885 1 2 tcp 1040 ------- 0 0.0 4.0 28 43
- 5.38472 1 2 tcp 1040 ------- 0 0.0 4.0 18 28
r 5.389599 3 4 tcp 1040 ------- 0 0.0 4.0 15 24
+ 5.389599 4 3 ack 40 ------- 0 4.0 0.0 15 44
- 5.389599 4 3 ack 40 ------- 0 4.0 0.0 15 44
r 5.399705 4 3 ack 40 ------- 0 4.0 0.0 15 44
+ 5.399705 3 2 ack 40 ------- 0 4.0 0.0 15 44
- 5.399705 3 2 ack 40 ------- 0 4.0 0.0 15 44
r 5.494179 2 1 ack 40 ------- 0 4.0 0.0 14 41
+ 5.494179 1 0 ack 40 ------- 0 4.0 0.0 14 41
- 5.494179 1 0 ack 40 ------- 0 4.0 0.0 14 41
r 5.53472 1 2 tcp 1040 ------- 0 0.0 4.0 17 27
+ 5.53472 2 3 tcp 1040 ------- 0 0.0 4.0 17 27
- 5.53472 2 3 tcp 1040 ------- 0 0.0 4.0 17 27
r 5.544286 1 0 ack 40 ------- 0 4.0 0.0 14 41
+ 5.544286 0 1 tcp 1040 ------- 0 0.0 4.0 29 45
- 5.544286 0 1 tcp 1040 ------- 0 0.0 4.0 29 45
+ 5.544286 0 1 tcp 1040 ------- 0 0.0 4.0 30 46
- 5.547059 0 1 tcp 1040 ------- 0 0.0 4.0 30 46
r 5.554705 3 2 ack 40 ------- 0 4.0 0.0 15 44
+ 5.554705 2 1 ack 40 ------- 0 4.0 0.0 15 44
- 5.554705 2 1 ack 40 ------- 0 4.0 0.0 15 44
r 5.595773 2 3 tcp 1040 ------- 0 0.0 4.0 16 25
+ 5.595773 3 4 tcp 1040 ------- 0 0.0 4.0 16 25
- 5.595773 3 4 tcp 1040 ------- 0 0.0 4.0 16 25
r 5.597059 0 1 tcp 1040 ------- 0 0.0 4.0 29 45
+ 5.597059 1 2 tcp 1040 ------- 0 0.0 4.0 29 45
r 5.599832 0 1 tcp 1040 ------- 0 0.0 4.0 30 46
+ 5.599832 1 2 tcp 1040 ------- 0 0.0 4.0 30 46
- 5.603667 1 2 tcp 1040 ------- 0 0.0 4.0 19 30
r 5.608546 3 4 tcp 1040 ------- 0 0.0 4.0 16 25
+ 5.608546 4 3 ack 40 ------- 0 4.0 0.0 16 47
- 5.608546 4 3 ack 40 ------- 0 4.0 0.0 16 47
r 5.618653 4 3 ack 40 ------- 0 4.0 0.0 16 47
+ 5.618653 3 2 ack 40 ------- 0 4.0 0.0 16 47
- 5.618653 3 2 ack 40 ------- 0 4.0 0.0 16 47
r 5.713126 2 1 ack 40 ------- 0 4.0 0.0 15 44
+ 5.713126 1 0 ack 40 ------- 0 4.0 0.0 15 44
- 5.713126 1 0 ack 40 ------- 0 4.0 0.0 15 44
r 5.753667 1 2 tcp 1040 ------- 0 0.0 4.0 18 28
+ 5.753667 2 3 tcp 1040 ------- 0 0.0 4.0 18 28
- 5.753667 2 3 tcp 1040 ------- 0 0.0 4.0 18 28
r 5.763233 1 0 ack 40 ------- 0 4.0 0.0 15 44
+ 5.763233 0 1 tcp 1040 ------- 0 0.0 4.0 31 48
- 5.763233 0 1 tcp 1040 ------- 0 0.0 4.0 31 48
+ 5.763233 0 1 tcp 1040 ------- 0 0.0 4.0 32 49
- 5.766006 0 1 tcp 1040 ------- 0 0.0 4.0 32 49
r 5.773653 3 2 ack 40 ------- 0 4.0 0.0 16 47
+ 5.773653 2 1 ack 40 ------- 0 4.0 0.0 16 47
- 5.773653 2 1 ack 40 ------- 0 4.0 0.0 16 47
r 5.81472 2 3 tcp 1040 ------- 0 0.0 4.0 17 27
+ 5.81472 3 4 tcp 1040 ------- 0 0.0 4.0 17 27
- 5.81472 3 4 tcp 1040 ------- 0 0.0 4.0 17 27
r 5.816006 0 1 tcp 1040 ------- 0 0.0 4.0 31 48
+ 5.816006 1 2 tcp 1040 ------- 0 0.0 4.0 31 48
r 5.81878 0 1 tcp 1040 ------- 0 0.0 4.0 32 49
+ 5.81878 1 2 tcp 1040 ------- 0 0.0 4.0 32 49
- 5.822615 1 2 tcp 1040 ------- 0 0.0 4.0 20 31
r 5.827493 3 4 tcp 1040 ------- 0 0.0 4.0 17 27
+ 5.827493 4 3 ack 40 ------- 0 4.0 0.0 17 50
- 5.827493 4 3 ack 40 ------- 0 4.0 0.0 17 50
r 5.8376 4 3 ack 40 ------- 0 4.0 0.0 17 50
+ 5.8376 3 2 ack 40 ------- 0 4.0 0.0 17 50
- 5.8376 3 2 ack 40 ------- 0 4.0 0.0 17 50
r 5.932074 2 1 ack 40 ------- 0 4.0 0.0 16 47
+ 5.932074 1 0 ack 40 ------- 0 4.0 0.0 16 47
- 5.932074 1 0 ack 40 ------- 0 4.0 0.0 16 47
r 5.972615 1 2 tcp 1040 ------- 0 0.0 4.0 19 30
+ 5.972615 2 3 tcp 1040 ------- 0 0.0 4.0 19 30
- 5.972615 2 3 tcp 1040 ------- 0 0.0 4.0 19 30
r 5.98218 1 0 ack 40 ------- 0 4.0 0.0 16 47
+ 5.98218 0 1 tcp 1040 ------- 0 0.0 4.0 33 51
- 5.98218 0 1 tcp 1040 ------- 0 0.0 4.0 33 51
+ 5.98218 0 1 tcp 1040 ------- 0 0.0 4.0 34 52
- 5.984954 0 1 tcp 1040 ------- 0 0.0 4.0 34 52
r 5.9926 3 2 ack 40 ------- 0 4.0 0.0 17 50
+ 5.9926 2 1 ack 40 ------- 0 4.0 0.0 17 50
- 5.9926 2 1 ack 40 ------- 0 4.0 0.0 17 50
r 6.033667 2 3 tcp 1040 ------- 0 0.0 4.0 18 28
+ 6.033667 3 4 tcp 1040 ------- 0 0.0 4.0 18 28
- 6.033667 3 4 tcp 1040 ------- 0 0.0 4.0 18 28
r 6.034954 0 1 tcp 1040 ------- 0 0.0 4.0 33 51
+ 6.034954 1 2 tcp 1040 ------- 0 0.0 4.0 33 51
r 6.037727 0 1 tcp 1040 ------- 0 0.0 4.0 34 52
+ 6.037727 1 2 tcp 1040 ------- 0 0.0 4.0 34 52
- 6.041562 1 2 tcp 1040 ------- 0 0.0 4.0 21 33
r 6.046441 3 4 tcp 1040 ------- 0 0.0 4.0 18 28
+ 6.046441 4 3 ack 40 ------- 0 4.0 0.0 18 53
- 6.046441 4 3 ack 40 ------- 0 4.0 0.0 18 53
r 6.056547 4 3 ack 40 ------- 0 4.0 0.0 18 53
+ 6.056547 3 2 ack 40 ------- 0 4.0 0.0 18 53
- 6.056547 3 2 ack 40 ------- 0 4.0 0.0 18 53
r 6.151021 2 1 ack 40 ------- 0 4.0 0.0 17 50
+ 6.151021 1 0 ack 40 ------- 0 4.0 0.0 17 50
- 6.151021 1 0 ack 40 ------- 0 4.0 0.0 17 50
r 6.191562 1 2 tcp 1040 ------- 0 0.0 4.0 20 31
+ 6.191562 2 3 tcp 1040 ------- 0 0.0 4.0 20 31
- 6.191562 2 3 tcp 1040 ------- 0 0.0 4.0 20 31
r 6.201128 1 0 ack 40 ------- 0 4.0 0.0 17 50
+ 6.201128 0 1 tcp 1040 ------- 0 0.0 4.0 35 54
- 6.201128 0 1 tcp 1040 ------- 0 0.0 4.0 35 54
+ 6.201128 0 1 tcp 1040 ------- 0 0.0 4.0 36 55
- 6.203901 0 1 tcp 1040 ------- 0 0.0 4.0 36 55
r 6.211547 3 2 ack 40 ------- 0 4.0 0.0 18 53
+ 6.211547 2 1 ack 40 ------- 0 4.0 0.0 18 53
- 6.211547 2 1 ack 40 ------- 0 4.0 0.0 18 53
r 6.252615 2 3 tcp 1040 ------- 0 0.0 4.0 19 30
+ 6.252615 3 4 tcp 1040 ------- 0 0.0 4.0 19 30
- 6.252615 3 4 tcp 1040 ------- 0 0.0 4.0 19 30
r 6.253901 0 1 tcp 1040 ------- 0 0.0 4.0 35 54
+ 6.253901 1 2 tcp 1040 ------- 0 0.0 4.0 35 54
r 6.256674 0 1 tcp 1040 ------- 0 0.0 4.0 36 55
+ 6.256674 1 2 tcp 1040 ------- 0 0.0 4.0 36 55
- 6.260509 1 2 tcp 1040 ------- 0 0.0 4.0 22 34
r 6.265388 3 4 tcp 1040 ------- 0 0.0 4.0 19 30
+ 6.265388 4 3 ack 40 ------- 0 4.0 0.0 19 56
- 6.265388 4 3 ack 40 ------- 0 4.0 0.0 19 56
r 6.275495 4 3 ack 40 ------- 0 4.0 0.0 19 56
+ 6.275495 3 2 ack 40 ------- 0 4.0 0.0 19 56
- 6.275495 3 2 ack 40 ------- 0 4.0 0.0 19 56
r 6.369968 2 1 ack 40 ------- 0 4.0 0.0 18 53
+ 6.369968 1 0 ack 40 ------- 0 4.0 0.0 18 53
- 6.369968 1 0 ack 40 ------- 0 4.0 0.0 18 53
r 6.410509 1 2 tcp 1040 ------- 0 0.0 4.0 21 33
+ 6.410509 2 3 tcp 1040 ------- 0 0.0 4.0 21 33
- 6.410509 2 3 tcp 1040 ------- 0 0.0 4.0 21 33
r 6.420075 1 0 ack 40 ------- 0 4.0 0.0 18 53
+ 6.420075 0 1 tcp 1040 ------- 0 0.0 4.0 37 57
- 6.420075 0 1 tcp 1040 ------- 0 0.0 4.0 37 57
+ 6.420075 0 1 tcp 1040 ------- 0 0.0 4.0 38 58
- 6.422848 0 1 tcp 1040 ------- 0 0.0 4.0 38 58
r 6.430495 3 2 ack 40 ------- 0 4.0 0.0 19 56
+ 6.430495 2 1 ack 40 ------- 0 4.0 0.0 19 56
- 6.430495 2 1 ack 40 ------- 0 4.0 0.0 19 56
r 6.471562 2 3 tcp 1040 ------- 0 0.0 4.0 20 31
+ 6.471562 3 4 tcp 1040 ------- 0 0.0 4.0 20 31
- 6.471562 3 4 tcp 1040 ------- 0 0.0 4.0 20 31
r 6.472848 0 1 tcp 1040 ------- 0 0.0 4.0 37 57
+ 6.472848 1 2 tcp 1040 ------- 0 0.0 4.0 37 57
r 6.475622 0 1 tcp 1040 ------- 0 0.0 4.0 38 58
+ 6.475622 1 2 tcp 1040 ------- 0 0.0 4.0 38 58
- 6.479457 1 2 tcp 1040 ------- 0 0.0 4.0 23 36
r 6.484335 3 4 tcp 1040 ------- 0 0.0 4.0 20 31
+ 6.484335 4 3 ack 40 ------- 0 4.0 0.0 20 59
- 6.484335 4 3 ack 40 ------- 0 4.0 0.0 20 59
r 6.494442 4 3 ack 40 ------- 0 4.0 0.0 20 59
+ 6.494442 3 2 ack 40 ------- 0 4.0 0.0 20 59
- 6.494442 3 2 ack 40 ------- 0 4.0 0.0 20 59
r 6.588916 2 1 ack 40 ------- 0 4.0 0.0 19 56
+ 6.588916 1 0 ack 40 ------- 0 4.0 0.0 19 56
- 6.588916 1 0 ack 40 ------- 0 4.0 0.0 19 56
r 6.629457 1 2 tcp 1040 ------- 0 0.0 4.0 22 34
+ 6.629457 2 3 tcp 1040 ------- 0 0.0 4.0 22 34
- 6.629457 2 3 tcp 1040 ------- 0 0.0 4.0 22 34
r 6.639022 1 0 ack 40 ------- 0 4.0 0.0 19 56
+ 6.639022 0 1 tcp 1040 ------- 0 0.0 4.0 39 60
- 6.639022 0 1 tcp 1040 ------- 0 0.0 4.0 39 60
r 6.649442 3 2 ack 40 ------- 0 4.0 0.0 20 59
+ 6.649442 2 1 ack 40 ------- 0 4.0 0.0 20 59
- 6.649442 2 1 ack 40 ------- 0 4.0 0.0 20 59
r 6.690509 2 3 tcp 1040 ------- 0 0.0 4.0 21 33
+ 6.690509 3 4 tcp 1040 ------- 0 0.0 4.0 21 33
- 6.690509 3 4 tcp 1040 ------- 0 0.0 4.0 21 33
r 6.691796 0 1 tcp 1040 ------- 0 0.0 4.0 39 60
+ 6.691796 1 2 tcp 1040 ------- 0 0.0 4.0 39 60
- 6.698404 1 2 tcp 1040 ------- 0 0.0 4.0 24 37
r 6.703283 3 4 tcp 1040 ------- 0 0.0 4.0 21 33
+ 6.703283 4 3 ack 40 ------- 0 4.0 0.0 21 61
- 6.703283 4 3 ack 40 ------- 0 4.0 0.0 21 61
r 6.713389 4 3 ack 40 ------- 0 4.0 0.0 21 61
+ 6.713389 3 2 ack 40 ------- 0 4.0 0.0 21 61
- 6.713389 3 2 ack 40 ------- 0 4.0 0.0 21 61
r 6.807863 2 1 ack 40 ------- 0 4.0 0.0 20 59
+ 6.807863 1 0 ack 40 ------- 0 4.0 0.0 20 59
- 6.807863 1 0 ack 40 ------- 0 4.0 0.0 20 59
r 6.848404 1 2 tcp 1040 ------- 0 0.0 4.0 23 36
+ 6.848404 2 3 tcp 1040 ------- 0 0.0 4.0 23 36
- 6.848404 2 3 tcp 1040 ------- 0 0.0 4.0 23 36
r 6.85797 1 0 ack 40 ------- 0 4.0 0.0 20 59
+ 6.85797 0 1 tcp 1040 ------- 0 0.0 4.0 40 62
- 6.85797 0 1 tcp 1040 ------- 0 0.0 4.0 40 62
r 6.868389 3 2 ack 40 ------- 0 4.0 0.0 21 61
+ 6.868389 2 1 ack 40 ------- 0 4.0 0.0 21 61
- 6.868389 2 1 ack 40 ------- 0 4.0 0.0 21 61
r 6.909457 2 3 tcp 1040 ------- 0 0.0 4.0 22 34
+ 6.909457 3 4 tcp 1040 ------- 0 0.0 4.0 22 34
- 6.909457 3 4 tcp 1040 ------- 0 0.0 4.0 22 34
r 6.910743 0 1 tcp 1040 ------- 0 0.0 4.0 40 62
+ 6.910743 1 2 tcp 1040 ------- 0 0.0 4.0 40 62
- 6.917352 1 2 tcp 1040 ------- 0 0.0 4.0 25 39
r 6.92223 3 4 tcp 1040 ------- 0 0.0 4.0 22 34
+ 6.92223 4 3 ack 40 ------- 0 4.0 0.0 22 63
- 6.92223 4 3 ack 40 ------- 0 4.0 0.0 22 63
r 6.932337 4 3 ack 40 ------- 0 4.0 0.0 22 63
+ 6.932337 3 2 ack 40 ------- 0 4.0 0.0 22 63
- 6.932337 3 2 ack 40 ------- 0 4.0 0.0 22 63
r 7.026811 2 1 ack 40 ------- 0 4.0 0.0 21 61
+ 7.026811 1 0 ack 40 ------- 0 4.0 0.0 21 61
- 7.026811 1 0 ack 40 ------- 0 4.0 0.0 21 61
r 7.067352 1 2 tcp 1040 ------- 0 0.0 4.0 24 37
+ 7.067352 2 3 tcp 1040 ------- 0 0.0 4.0 24 37
- 7.067352 2 3 tcp 1040 ------- 0 0.0 4.0 24 37
r 7.076917 1 0 ack 40 ------- 0 4.0 0.0 21 61
+ 7.076917 0 1 tcp 1040 ------- 0 0.0 4.0 41 64
- 7.076917 0 1 tcp 1040 ------- 0 0.0 4.0 41 64
r 7.087337 3 2 ack 40 ------- 0 4.0 0.0 22 63
+ 7.087337 2 1 ack 40 ------- 0 4.0 0.0 22 63
- 7.087337 2 1 ack 40 ------- 0 4.0 0.0 22 63
r 7.128404 2 3 tcp 1040 ------- 0 0.0 4.0 23 36
+ 7.128404 3 4 tcp 1040 ------- 0 0.0 4.0 23 36
- 7.128404 3 4 tcp 1040 ------- 0 0.0 4.0 23 36
r 7.129691 0 1 tcp 1040 ------- 0 0.0 4.0 41 64
+ 7.129691 1 2 tcp 1040 ------- 0 0.0 4.0 41 64
- 7.136299 1 2 tcp 1040 ------- 0 0.0 4.0 26 40
r 7.141178 3 4 tcp 1040 ------- 0 0.0 4.0 23 36
+ 7.141178 4 3 ack 40 ------- 0 4.0 0.0 23 65
- 7.141178 4 3 ack 40 ------- 0 4.0 0.0 23 65
r 7.151284 4 3 ack 40 ------- 0 4.0 0.0 23 65
+ 7.151284 3 2 ack 40 ------- 0 4.0 0.0 23 65
- 7.151284 3 2 ack 40 ------- 0 4.0 0.0 23 65
r 7.245758 2 1 ack 40 ------- 0 4.0 0.0 22 63
+ 7.245758 1 0 ack 40 ------- 0 4.0 0.0 22 63
- 7.245758 1 0 ack 40 ------- 0 4.0 0.0 22 63